n -t * -s 0  -x -19 -y 383 -Z 0 -z 30  -v circle -c black
n -t * -s 1  -x 537 -y 236 -Z 0 -z 30  -v circle -c black
n -t * -s 2  -x 587 -y 540 -Z 0 -z 30  -v circle -c black
n -t * -s 3  -x 589 -y 391 -Z 0 -z 30  -v circle -c black
n -t * -s 4  -x 405 -y 538 -Z 0 -z 30  -v circle -c black
n -t * -s 5  -x 57 -y 222 -Z 0 -z 30  -v circle -c black
n -t * -s 6  -x 254 -y 528 -Z 0 -z 30  -v circle -c black
n -t * -s 7  -x 432 -y 373 -Z 0 -z 30  -v circle -c black
n -t * -s 8  -x 378 -y 204 -Z 0 -z 30  -v circle -c black
n -t * -s 9  -x 285 -y 346 -Z 0 -z 30  -v circle -c black
n -t * -s 10  -x 55 -y 540 -Z 0 -z 30  -v circle -c black
n -t * -s 11  -x 218 -y 650 -Z 0 -z 30  -v circle -c black
n -t * -s 12  -x 479 -y 671 -Z 0 -z 30  -v circle -c black
n -t * -s 13  -x 182 -y 172 -Z 0 -z 30  -v circle -c black
n -t * -s 14  -x 123 -y 364 -Z 0 -z 30  -v circle -c black
V -t * -v 1.0a5 -a 0
W -t * -x 800 -y 800
A -t * -n 1 -p 0 -o 0x7fffffff -c 30 -a 1
A -t * -h 1 -m 1073741823 -s 0
c -t * -i 4 -n brown
c -t * -i 0 -n darkgreen
c -t * -i 5 -n purple
c -t * -i 1 -n blue
c -t * -i 6 -n gray
c -t * -i 2 -n green
c -t * -i 7 -n deepskyblue
c -t * -i 3 -n red
n -t 0.000000 -s 1 -x 537.000000 -y 236.000000 -U 0.000000 -V 25.000000 -T 0.520000
n -t 0.000000 -s 2 -x 587.000000 -y 540.000000 -U 1.189129 -V 24.971703 -T 0.840952
n -t 0.000000 -s 3 -x 589.000000 -y 391.000000 -U 1.386750 -V 24.961509 -T 0.721110
n -t 0.000000 -s 4 -x 405.000000 -y 538.000000 -U 0.000000 -V 0.000000 -T 0.000000
n -t 0.000000 -s 5 -x 57.000000 -y 222.000000 -U 19.601146 -V 15.517574 -T 1.224418
n -t 0.000000 -s 6 -x 254.000000 -y 528.000000 -U 15.764816 -V 19.402850 -T 0.824621
n -t 0.000000 -s 7 -x 432.000000 -y 373.000000 -U 1.386750 -V 24.961509 -T 0.721110
n -t 0.000000 -s 8 -x 378.000000 -y 204.000000 -U 4.109975 -V 24.659848 -T 0.729932
n -t 0.000000 -s 9 -x 285.000000 -y 346.000000 -U 0.000000 -V 0.000000 -T 0.000000
n -t 0.000000 -s 10 -x 55.000000 -y 540.000000 -U 4.109975 -V 24.659848 -T 1.459863
n -t 0.000000 -s 11 -x 218.000000 -y 650.000000 -U -3.415935 -V -24.765528 -T 1.170982
n -t 0.000000 -s 12 -x 479.000000 -y 671.000000 -U 17.677670 -V 17.677670 -T 0.905097
n -t 0.000000 -s 13 -x 182.000000 -y 172.000000 -U 10.527783 -V 22.675224 -T 1.234828
n -t 0.000000 -s 14 -x 123.000000 -y 364.000000 -U 20.266981 -V 14.637264 -T 0.888144
v -t 0 -e sim_annotation 0 1 Network Deployed
v -t 0 -e sim_annotation 0 2 NODE0 became a SOURCE
v -t 0 -e sim_annotation 0 3 NODE7 becme a DESTINATION
n -t 0 -s 0 -S DLABEL -l "SOURCE" -L ""
n -t 0 -s 7 -S DLABEL -l "DESTINATION" -L ""
n -t 0 -s 0 -S COLOR -c deepskyblue -o deepskyblue -i deepskyblue -I deepskyblue
n -t 0 -s 7 -S COLOR -c deepskyblue -o deepskyblue -i deepskyblue -I deepskyblue
m -t 0 -s 0 -n . -c blue -h circle
m -t 0 -s 7 -n . -c blue -h circle
v -t 0.5 -e sim_annotation 0.5 4 NODE0 flood FAKE-RREQ packets with FAKE-DESTINATION-ADDRESS
n -t 0.5 -s 0 -S DLABEL -l "FAKE-RREQ+fake_dest_add" -L "SOURCE"
+ -t 0.500000000 -s 0 -d -1 -p tcp -e 40 -c 2 -a 0 -i 0 -k AGT 
- -t 0.500000000 -s 0 -d -1 -p tcp -e 40 -c 2 -a 0 -i 0 -k AGT
h -t 0.500000000 -s 0 -d -1 -p tcp -e 40 -c 2 -a 0 -i 0 -k AGT
+ -t 0.500000000 -s 0 -d -1 -p tcp -e 40 -c 2 -a 0 -i 1 -k AGT 
- -t 0.500000000 -s 0 -d -1 -p tcp -e 40 -c 2 -a 0 -i 1 -k AGT
h -t 0.500000000 -s 0 -d -1 -p tcp -e 40 -c 2 -a 0 -i 1 -k AGT
+ -t 0.500000000 -s 0 -d -1 -p AODV -e 48 -c 2 -a 0 -i 0 -k RTR 
- -t 0.500000000 -s 0 -d -1 -p AODV -e 48 -c 2 -a 0 -i 0 -k RTR
h -t 0.500000000 -s 0 -d -1 -p AODV -e 48 -c 2 -a 0 -i 0 -k RTR
+ -t 0.500000000 -s 0 -d -1 -p AODV -e 48 -c 2 -a 0 -i 0 -k RTR 
- -t 0.500000000 -s 0 -d -1 -p AODV -e 48 -c 2 -a 0 -i 0 -k RTR
h -t 0.500000000 -s 0 -d -1 -p AODV -e 48 -c 2 -a 0 -i 0 -k RTR
r -t 0.501128509 -s 14 -d -1 -p AODV -e 48 -c 2 -a 0 -i 0 -k RTR
r -t 0.501128585 -s 5 -d -1 -p AODV -e 48 -c 2 -a 0 -i 0 -k RTR
r -t 0.501128619 -s 10 -d -1 -p AODV -e 48 -c 2 -a 0 -i 0 -k RTR
+ -t 0.501128619 -s 10 -d 0 -p AODV -e 44 -c 2 -a 0 -i 0 -k RTR 
- -t 0.501128619 -s 10 -d 0 -p AODV -e 44 -c 2 -a 0 -i 0 -k RTR
h -t 0.501128619 -s 10 -d 0 -p AODV -e 44 -c 2 -a 0 -i 0 -k RTR
r -t 0.503055746 -s 14 -d -1 -p AODV -e 48 -c 2 -a 0 -i 0 -k RTR
r -t 0.503055823 -s 5 -d -1 -p AODV -e 48 -c 2 -a 0 -i 0 -k RTR
+ -t 0.503055823 -s 5 -d 0 -p AODV -e 44 -c 2 -a 0 -i 0 -k RTR 
- -t 0.503055823 -s 5 -d 0 -p AODV -e 44 -c 2 -a 0 -i 0 -k RTR
h -t 0.503055823 -s 5 -d 0 -p AODV -e 44 -c 2 -a 0 -i 0 -k RTR
r -t 0.503055857 -s 10 -d -1 -p AODV -e 48 -c 2 -a 0 -i 0 -k RTR
+ -t 0.503331431 -s 10 -d -1 -p AODV -e 48 -c 2 -a 0 -i 0 -k RTR 
- -t 0.503331431 -s 10 -d -1 -p AODV -e 48 -c 2 -a 0 -i 0 -k RTR
h -t 0.503331431 -s 10 -d -1 -p AODV -e 48 -c 2 -a 0 -i 0 -k RTR
r -t 0.505963696 -s 11 -d -1 -p AODV -e 48 -c 2 -a 0 -i 0 -k RTR
r -t 0.505963714 -s 0 -d -1 -p AODV -e 48 -c 2 -a 0 -i 0 -k RTR
r -t 0.505963750 -s 14 -d -1 -p AODV -e 48 -c 2 -a 0 -i 0 -k RTR
r -t 0.505963779 -s 6 -d -1 -p AODV -e 48 -c 2 -a 0 -i 0 -k RTR
+ -t 0.506576805 -s 5 -d -1 -p AODV -e 48 -c 2 -a 0 -i 0 -k RTR 
- -t 0.506576805 -s 5 -d -1 -p AODV -e 48 -c 2 -a 0 -i 0 -k RTR
h -t 0.506576805 -s 5 -d -1 -p AODV -e 48 -c 2 -a 0 -i 0 -k RTR
+ -t 0.507312619 -s 14 -d -1 -p AODV -e 48 -c 2 -a 0 -i 0 -k RTR 
- -t 0.507312619 -s 14 -d -1 -p AODV -e 48 -c 2 -a 0 -i 0 -k RTR
h -t 0.507312619 -s 14 -d -1 -p AODV -e 48 -c 2 -a 0 -i 0 -k RTR
+ -t 0.507746953 -s 0 -d 10 -p tcp -e 40 -c 2 -a 0 -i 0 -k RTR 
- -t 0.507746953 -s 0 -d 10 -p tcp -e 40 -c 2 -a 0 -i 0 -k RTR
h -t 0.507746953 -s 0 -d 10 -p tcp -e 40 -c 2 -a 0 -i 0 -k RTR
+ -t 0.508115241 -s 14 -d -1 -p AODV -e 48 -c 2 -a 0 -i 0 -k RTR 
- -t 0.508115241 -s 14 -d -1 -p AODV -e 48 -c 2 -a 0 -i 0 -k RTR
h -t 0.508115241 -s 14 -d -1 -p AODV -e 48 -c 2 -a 0 -i 0 -k RTR
r -t 0.508979971 -s 0 -d -1 -p AODV -e 48 -c 2 -a 0 -i 0 -k RTR
r -t 0.508979974 -s 9 -d -1 -p AODV -e 48 -c 2 -a 0 -i 0 -k RTR
r -t 0.508979983 -s 5 -d -1 -p AODV -e 48 -c 2 -a 0 -i 0 -k RTR
r -t 0.508980113 -s 13 -d -1 -p AODV -e 48 -c 2 -a 0 -i 0 -k RTR
r -t 0.508980117 -s 10 -d -1 -p AODV -e 48 -c 2 -a 0 -i 0 -k RTR
r -t 0.508980163 -s 6 -d -1 -p AODV -e 48 -c 2 -a 0 -i 0 -k RTR
+ -t 0.509893544 -s 9 -d -1 -p AODV -e 48 -c 2 -a 0 -i 0 -k RTR 
- -t 0.509893544 -s 9 -d -1 -p AODV -e 48 -c 2 -a 0 -i 0 -k RTR
h -t 0.509893544 -s 9 -d -1 -p AODV -e 48 -c 2 -a 0 -i 0 -k RTR
r -t 0.509997971 -s 0 -d -1 -p AODV -e 48 -c 2 -a 0 -i 0 -k RTR
r -t 0.509997974 -s 9 -d -1 -p AODV -e 48 -c 2 -a 0 -i 0 -k RTR
r -t 0.509997983 -s 5 -d -1 -p AODV -e 48 -c 2 -a 0 -i 0 -k RTR
r -t 0.509998113 -s 13 -d -1 -p AODV -e 48 -c 2 -a 0 -i 0 -k RTR
r -t 0.509998117 -s 10 -d -1 -p AODV -e 48 -c 2 -a 0 -i 0 -k RTR
r -t 0.509998163 -s 6 -d -1 -p AODV -e 48 -c 2 -a 0 -i 0 -k RTR
r -t 0.511974413 -s 13 -d -1 -p AODV -e 48 -c 2 -a 0 -i 0 -k RTR
r -t 0.511974504 -s 14 -d -1 -p AODV -e 48 -c 2 -a 0 -i 0 -k RTR
r -t 0.511974568 -s 0 -d -1 -p AODV -e 48 -c 2 -a 0 -i 0 -k RTR
r -t 0.511974806 -s 9 -d -1 -p AODV -e 48 -c 2 -a 0 -i 0 -k RTR
r -t 0.513506427 -s 10 -d 10 -p tcp -e 40 -c 2 -a 0 -i 0 -k AGT
+ -t 0.513506427 -s 10 -d -1 -p ack -e 40 -c 2 -a 0 -i 2 -k AGT 
- -t 0.513506427 -s 10 -d -1 -p ack -e 40 -c 2 -a 0 -i 2 -k AGT
h -t 0.513506427 -s 10 -d -1 -p ack -e 40 -c 2 -a 0 -i 2 -k AGT
+ -t 0.513506427 -s 10 -d 0 -p ack -e 40 -c 2 -a 0 -i 2 -k RTR 
- -t 0.513506427 -s 10 -d 0 -p ack -e 40 -c 2 -a 0 -i 2 -k RTR
h -t 0.513506427 -s 10 -d 0 -p ack -e 40 -c 2 -a 0 -i 2 -k RTR
+ -t 0.513690737 -s 6 -d -1 -p AODV -e 48 -c 2 -a 0 -i 0 -k RTR 
- -t 0.513690737 -s 6 -d -1 -p AODV -e 48 -c 2 -a 0 -i 0 -k RTR
h -t 0.513690737 -s 6 -d -1 -p AODV -e 48 -c 2 -a 0 -i 0 -k RTR
+ -t 0.513897331 -s 13 -d -1 -p AODV -e 48 -c 2 -a 0 -i 0 -k RTR 
- -t 0.513897331 -s 13 -d -1 -p AODV -e 48 -c 2 -a 0 -i 0 -k RTR
h -t 0.513897331 -s 13 -d -1 -p AODV -e 48 -c 2 -a 0 -i 0 -k RTR
+ -t 0.514210364 -s 6 -d -1 -p AODV -e 48 -c 2 -a 0 -i 0 -k RTR 
- -t 0.514210364 -s 6 -d -1 -p AODV -e 48 -c 2 -a 0 -i 0 -k RTR
h -t 0.514210364 -s 6 -d -1 -p AODV -e 48 -c 2 -a 0 -i 0 -k RTR
+ -t 0.515326960 -s 9 -d -1 -p AODV -e 48 -c 2 -a 0 -i 0 -k RTR 
- -t 0.515326960 -s 9 -d -1 -p AODV -e 48 -c 2 -a 0 -i 0 -k RTR
h -t 0.515326960 -s 9 -d -1 -p AODV -e 48 -c 2 -a 0 -i 0 -k RTR
r -t 0.515352287 -s 0 -d 0 -p ack -e 40 -c 2 -a 0 -i 2 -k AGT
+ -t 0.515352287 -s 0 -d -1 -p tcp -e 1040 -c 2 -a 0 -i 3 -k AGT 
- -t 0.515352287 -s 0 -d -1 -p tcp -e 1040 -c 2 -a 0 -i 3 -k AGT
h -t 0.515352287 -s 0 -d -1 -p tcp -e 1040 -c 2 -a 0 -i 3 -k AGT
+ -t 0.515352287 -s 0 -d -1 -p tcp -e 1040 -c 2 -a 0 -i 4 -k AGT 
- -t 0.515352287 -s 0 -d -1 -p tcp -e 1040 -c 2 -a 0 -i 4 -k AGT
h -t 0.515352287 -s 0 -d -1 -p tcp -e 1040 -c 2 -a 0 -i 4 -k AGT
+ -t 0.515352287 -s 0 -d 10 -p tcp -e 1040 -c 2 -a 0 -i 3 -k RTR 
- -t 0.515352287 -s 0 -d 10 -p tcp -e 1040 -c 2 -a 0 -i 3 -k RTR
h -t 0.515352287 -s 0 -d 10 -p tcp -e 1040 -c 2 -a 0 -i 3 -k RTR
+ -t 0.515352287 -s 0 -d 10 -p tcp -e 1040 -c 2 -a 0 -i 4 -k RTR 
- -t 0.515352287 -s 0 -d 10 -p tcp -e 1040 -c 2 -a 0 -i 4 -k RTR
h -t 0.515352287 -s 0 -d 10 -p tcp -e 1040 -c 2 -a 0 -i 4 -k RTR
+ -t 0.515431858 -s 11 -d -1 -p AODV -e 48 -c 2 -a 0 -i 0 -k RTR 
- -t 0.515431858 -s 11 -d -1 -p AODV -e 48 -c 2 -a 0 -i 0 -k RTR
h -t 0.515431858 -s 11 -d -1 -p AODV -e 48 -c 2 -a 0 -i 0 -k RTR
+ -t 0.517349025 -s 13 -d -1 -p AODV -e 48 -c 2 -a 0 -i 0 -k RTR 
- -t 0.517349025 -s 13 -d -1 -p AODV -e 48 -c 2 -a 0 -i 0 -k RTR
h -t 0.517349025 -s 13 -d -1 -p AODV -e 48 -c 2 -a 0 -i 0 -k RTR
r -t 0.527348488 -s 10 -d 10 -p tcp -e 1040 -c 2 -a 0 -i 3 -k AGT
+ -t 0.527348488 -s 10 -d -1 -p ack -e 40 -c 2 -a 0 -i 5 -k AGT 
- -t 0.527348488 -s 10 -d -1 -p ack -e 40 -c 2 -a 0 -i 5 -k AGT
h -t 0.527348488 -s 10 -d -1 -p ack -e 40 -c 2 -a 0 -i 5 -k AGT
+ -t 0.527348488 -s 10 -d 0 -p ack -e 40 -c 2 -a 0 -i 5 -k RTR 
- -t 0.527348488 -s 10 -d 0 -p ack -e 40 -c 2 -a 0 -i 5 -k RTR
h -t 0.527348488 -s 10 -d 0 -p ack -e 40 -c 2 -a 0 -i 5 -k RTR
r -t 0.528671302 -s 11 -d -1 -p AODV -e 48 -c 2 -a 0 -i 0 -k RTR
r -t 0.528671414 -s 4 -d -1 -p AODV -e 48 -c 2 -a 0 -i 0 -k RTR
r -t 0.528671584 -s 9 -d -1 -p AODV -e 48 -c 2 -a 0 -i 0 -k RTR
r -t 0.528671624 -s 10 -d -1 -p AODV -e 48 -c 2 -a 0 -i 0 -k RTR
r -t 0.528671640 -s 14 -d -1 -p AODV -e 48 -c 2 -a 0 -i 0 -k RTR
r -t 0.528671700 -s 7 -d -1 -p AODV -e 48 -c 2 -a 0 -i 0 -k RTR
r -t 0.529630094 -s 7 -d -1 -p AODV -e 48 -c 2 -a 0 -i 0 -k RTR
r -t 0.529630095 -s 14 -d -1 -p AODV -e 48 -c 2 -a 0 -i 0 -k RTR
r -t 0.529630118 -s 8 -d -1 -p AODV -e 48 -c 2 -a 0 -i 0 -k RTR
r -t 0.529630214 -s 13 -d -1 -p AODV -e 48 -c 2 -a 0 -i 0 -k RTR
+ -t 0.530171584 -s 7 -d -1 -p AODV -e 48 -c 2 -a 0 -i 0 -k RTR 
- -t 0.530171584 -s 7 -d -1 -p AODV -e 48 -c 2 -a 0 -i 0 -k RTR
h -t 0.530171584 -s 7 -d -1 -p AODV -e 48 -c 2 -a 0 -i 0 -k RTR
r -t 0.531232809 -s 7 -d -1 -p AODV -e 48 -c 2 -a 0 -i 0 -k RTR
r -t 0.531232832 -s 8 -d -1 -p AODV -e 48 -c 2 -a 0 -i 0 -k RTR
r -t 0.531233053 -s 4 -d -1 -p AODV -e 48 -c 2 -a 0 -i 0 -k RTR
+ -t 0.531560976 -s 4 -d -1 -p AODV -e 48 -c 2 -a 0 -i 0 -k RTR 
- -t 0.531560976 -s 4 -d -1 -p AODV -e 48 -c 2 -a 0 -i 0 -k RTR
h -t 0.531560976 -s 4 -d -1 -p AODV -e 48 -c 2 -a 0 -i 0 -k RTR
r -t 0.533209188 -s 0 -d 0 -p ack -e 40 -c 2 -a 0 -i 5 -k AGT
+ -t 0.533209188 -s 0 -d -1 -p tcp -e 1040 -c 2 -a 0 -i 6 -k AGT 
- -t 0.533209188 -s 0 -d -1 -p tcp -e 1040 -c 2 -a 0 -i 6 -k AGT
h -t 0.533209188 -s 0 -d -1 -p tcp -e 1040 -c 2 -a 0 -i 6 -k AGT
+ -t 0.533209188 -s 0 -d -1 -p tcp -e 1040 -c 2 -a 0 -i 7 -k AGT 
- -t 0.533209188 -s 0 -d -1 -p tcp -e 1040 -c 2 -a 0 -i 7 -k AGT
h -t 0.533209188 -s 0 -d -1 -p tcp -e 1040 -c 2 -a 0 -i 7 -k AGT
+ -t 0.533209188 -s 0 -d 10 -p tcp -e 1040 -c 2 -a 0 -i 6 -k RTR 
- -t 0.533209188 -s 0 -d 10 -p tcp -e 1040 -c 2 -a 0 -i 6 -k RTR
h -t 0.533209188 -s 0 -d 10 -p tcp -e 1040 -c 2 -a 0 -i 6 -k RTR
+ -t 0.533209188 -s 0 -d 10 -p tcp -e 1040 -c 2 -a 0 -i 7 -k RTR 
- -t 0.533209188 -s 0 -d 10 -p tcp -e 1040 -c 2 -a 0 -i 7 -k RTR
h -t 0.533209188 -s 0 -d 10 -p tcp -e 1040 -c 2 -a 0 -i 7 -k RTR
+ -t 0.533366157 -s 8 -d -1 -p AODV -e 48 -c 2 -a 0 -i 0 -k RTR 
- -t 0.533366157 -s 8 -d -1 -p AODV -e 48 -c 2 -a 0 -i 0 -k RTR
h -t 0.533366157 -s 8 -d -1 -p AODV -e 48 -c 2 -a 0 -i 0 -k RTR
+ -t 0.535137399 -s 0 -d 5 -p tcp -e 40 -c 2 -a 0 -i 1 -k RTR 
- -t 0.535137399 -s 0 -d 5 -p tcp -e 40 -c 2 -a 0 -i 1 -k RTR
h -t 0.535137399 -s 0 -d 5 -p tcp -e 40 -c 2 -a 0 -i 1 -k RTR
+ -t 0.535306673 -s 4 -d -1 -p AODV -e 48 -c 2 -a 0 -i 0 -k RTR 
- -t 0.535306673 -s 4 -d -1 -p AODV -e 48 -c 2 -a 0 -i 0 -k RTR
h -t 0.535306673 -s 4 -d -1 -p AODV -e 48 -c 2 -a 0 -i 0 -k RTR
+ -t 0.538189707 -s 7 -d -1 -p AODV -e 48 -c 2 -a 0 -i 0 -k RTR 
- -t 0.538189707 -s 7 -d -1 -p AODV -e 48 -c 2 -a 0 -i 0 -k RTR
h -t 0.538189707 -s 7 -d -1 -p AODV -e 48 -c 2 -a 0 -i 0 -k RTR
+ -t 0.540352224 -s 8 -d -1 -p AODV -e 48 -c 2 -a 0 -i 0 -k RTR 
- -t 0.540352224 -s 8 -d -1 -p AODV -e 48 -c 2 -a 0 -i 0 -k RTR
h -t 0.540352224 -s 8 -d -1 -p AODV -e 48 -c 2 -a 0 -i 0 -k RTR
r -t 0.545023264 -s 10 -d 10 -p tcp -e 1040 -c 2 -a 0 -i 4 -k AGT
+ -t 0.545023264 -s 10 -d -1 -p ack -e 40 -c 2 -a 0 -i 8 -k AGT 
- -t 0.545023264 -s 10 -d -1 -p ack -e 40 -c 2 -a 0 -i 8 -k AGT
h -t 0.545023264 -s 10 -d -1 -p ack -e 40 -c 2 -a 0 -i 8 -k AGT
+ -t 0.545023264 -s 10 -d 0 -p ack -e 40 -c 2 -a 0 -i 8 -k RTR 
- -t 0.545023264 -s 10 -d 0 -p ack -e 40 -c 2 -a 0 -i 8 -k RTR
h -t 0.545023264 -s 10 -d 0 -p ack -e 40 -c 2 -a 0 -i 8 -k RTR
r -t 0.546326075 -s 11 -d -1 -p AODV -e 48 -c 2 -a 0 -i 0 -k RTR
r -t 0.546326188 -s 4 -d -1 -p AODV -e 48 -c 2 -a 0 -i 0 -k RTR
r -t 0.546326360 -s 9 -d -1 -p AODV -e 48 -c 2 -a 0 -i 0 -k RTR
r -t 0.546326400 -s 10 -d -1 -p AODV -e 48 -c 2 -a 0 -i 0 -k RTR
r -t 0.546326415 -s 14 -d -1 -p AODV -e 48 -c 2 -a 0 -i 0 -k RTR
r -t 0.546326474 -s 7 -d -1 -p AODV -e 48 -c 2 -a 0 -i 0 -k RTR
r -t 0.547244985 -s 9 -d -1 -p AODV -e 48 -c 2 -a 0 -i 0 -k RTR
r -t 0.547244987 -s 4 -d -1 -p AODV -e 48 -c 2 -a 0 -i 0 -k RTR
r -t 0.547245001 -s 3 -d -1 -p AODV -e 48 -c 2 -a 0 -i 0 -k RTR
r -t 0.547245050 -s 1 -d -1 -p AODV -e 48 -c 2 -a 0 -i 0 -k RTR
r -t 0.547245065 -s 8 -d -1 -p AODV -e 48 -c 2 -a 0 -i 0 -k RTR
r -t 0.547245233 -s 2 -d -1 -p AODV -e 48 -c 2 -a 0 -i 0 -k RTR
r -t 0.547245235 -s 6 -d -1 -p AODV -e 48 -c 2 -a 0 -i 0 -k RTR
+ -t 0.547564415 -s 3 -d -1 -p AODV -e 48 -c 2 -a 0 -i 0 -k RTR 
- -t 0.547564415 -s 3 -d -1 -p AODV -e 48 -c 2 -a 0 -i 0 -k RTR
h -t 0.547564415 -s 3 -d -1 -p AODV -e 48 -c 2 -a 0 -i 0 -k RTR
r -t 0.548163462 -s 6 -d -1 -p AODV -e 48 -c 2 -a 0 -i 0 -k RTR
r -t 0.548163500 -s 7 -d -1 -p AODV -e 48 -c 2 -a 0 -i 0 -k RTR
r -t 0.548163538 -s 12 -d -1 -p AODV -e 48 -c 2 -a 0 -i 0 -k RTR
r -t 0.548163598 -s 2 -d -1 -p AODV -e 48 -c 2 -a 0 -i 0 -k RTR
r -t 0.548163697 -s 11 -d -1 -p AODV -e 48 -c 2 -a 0 -i 0 -k RTR
r -t 0.548163742 -s 9 -d -1 -p AODV -e 48 -c 2 -a 0 -i 0 -k RTR
r -t 0.548163747 -s 3 -d -1 -p AODV -e 48 -c 2 -a 0 -i 0 -k RTR
+ -t 0.548323718 -s 3 -d -1 -p AODV -e 48 -c 2 -a 0 -i 0 -k RTR 
- -t 0.548323718 -s 3 -d -1 -p AODV -e 48 -c 2 -a 0 -i 0 -k RTR
h -t 0.548323718 -s 3 -d -1 -p AODV -e 48 -c 2 -a 0 -i 0 -k RTR
r -t 0.549082243 -s 2 -d -1 -p AODV -e 48 -c 2 -a 0 -i 0 -k RTR
r -t 0.549082273 -s 7 -d -1 -p AODV -e 48 -c 2 -a 0 -i 0 -k RTR
r -t 0.549082295 -s 1 -d -1 -p AODV -e 48 -c 2 -a 0 -i 0 -k RTR
+ -t 0.550239749 -s 2 -d -1 -p AODV -e 48 -c 2 -a 0 -i 0 -k RTR 
- -t 0.550239749 -s 2 -d -1 -p AODV -e 48 -c 2 -a 0 -i 0 -k RTR
h -t 0.550239749 -s 2 -d -1 -p AODV -e 48 -c 2 -a 0 -i 0 -k RTR
r -t 0.550445703 -s 5 -d -1 -p AODV -e 48 -c 2 -a 0 -i 0 -k RTR
r -t 0.550445903 -s 9 -d -1 -p AODV -e 48 -c 2 -a 0 -i 0 -k RTR
r -t 0.550445925 -s 14 -d -1 -p AODV -e 48 -c 2 -a 0 -i 0 -k RTR
r -t 0.550445925 -s 8 -d -1 -p AODV -e 48 -c 2 -a 0 -i 0 -k RTR
r -t 0.551363703 -s 5 -d -1 -p AODV -e 48 -c 2 -a 0 -i 0 -k RTR
r -t 0.551363903 -s 9 -d -1 -p AODV -e 48 -c 2 -a 0 -i 0 -k RTR
r -t 0.551363925 -s 14 -d -1 -p AODV -e 48 -c 2 -a 0 -i 0 -k RTR
r -t 0.551363925 -s 8 -d -1 -p AODV -e 48 -c 2 -a 0 -i 0 -k RTR
r -t 0.552302458 -s 1 -d -1 -p AODV -e 48 -c 2 -a 0 -i 0 -k RTR
r -t 0.552302458 -s 9 -d -1 -p AODV -e 48 -c 2 -a 0 -i 0 -k RTR
r -t 0.552302516 -s 7 -d -1 -p AODV -e 48 -c 2 -a 0 -i 0 -k RTR
r -t 0.552302576 -s 13 -d -1 -p AODV -e 48 -c 2 -a 0 -i 0 -k RTR
+ -t 0.552676153 -s 12 -d -1 -p AODV -e 48 -c 2 -a 0 -i 0 -k RTR 
- -t 0.552676153 -s 12 -d -1 -p AODV -e 48 -c 2 -a 0 -i 0 -k RTR
h -t 0.552676153 -s 12 -d -1 -p AODV -e 48 -c 2 -a 0 -i 0 -k RTR
+ -t 0.553398800 -s 2 -d -1 -p AODV -e 48 -c 2 -a 0 -i 0 -k RTR 
- -t 0.553398800 -s 2 -d -1 -p AODV -e 48 -c 2 -a 0 -i 0 -k RTR
h -t 0.553398800 -s 2 -d -1 -p AODV -e 48 -c 2 -a 0 -i 0 -k RTR
r -t 0.553401027 -s 9 -d -1 -p AODV -e 48 -c 2 -a 0 -i 0 -k RTR
r -t 0.553401028 -s 4 -d -1 -p AODV -e 48 -c 2 -a 0 -i 0 -k RTR
r -t 0.553401043 -s 3 -d -1 -p AODV -e 48 -c 2 -a 0 -i 0 -k RTR
r -t 0.553401092 -s 1 -d -1 -p AODV -e 48 -c 2 -a 0 -i 0 -k RTR
r -t 0.553401106 -s 8 -d -1 -p AODV -e 48 -c 2 -a 0 -i 0 -k RTR
r -t 0.553401275 -s 2 -d -1 -p AODV -e 48 -c 2 -a 0 -i 0 -k RTR
r -t 0.553401276 -s 6 -d -1 -p AODV -e 48 -c 2 -a 0 -i 0 -k RTR
r -t 0.554319772 -s 3 -d -1 -p AODV -e 48 -c 2 -a 0 -i 0 -k RTR
r -t 0.554319812 -s 12 -d -1 -p AODV -e 48 -c 2 -a 0 -i 0 -k RTR
r -t 0.554319886 -s 4 -d -1 -p AODV -e 48 -c 2 -a 0 -i 0 -k RTR
r -t 0.554320034 -s 7 -d -1 -p AODV -e 48 -c 2 -a 0 -i 0 -k RTR
+ -t 0.554384393 -s 11 -d -1 -p AODV -e 48 -c 2 -a 0 -i 0 -k RTR 
- -t 0.554384393 -s 11 -d -1 -p AODV -e 48 -c 2 -a 0 -i 0 -k RTR
h -t 0.554384393 -s 11 -d -1 -p AODV -e 48 -c 2 -a 0 -i 0 -k RTR
+ -t 0.554797404 -s 1 -d -1 -p AODV -e 48 -c 2 -a 0 -i 0 -k RTR 
- -t 0.554797404 -s 1 -d -1 -p AODV -e 48 -c 2 -a 0 -i 0 -k RTR
h -t 0.554797404 -s 1 -d -1 -p AODV -e 48 -c 2 -a 0 -i 0 -k RTR
r -t 0.555238348 -s 2 -d -1 -p AODV -e 48 -c 2 -a 0 -i 0 -k RTR
r -t 0.555238363 -s 4 -d -1 -p AODV -e 48 -c 2 -a 0 -i 0 -k RTR
r -t 0.556521288 -s 2 -d -1 -p AODV -e 48 -c 2 -a 0 -i 0 -k RTR
r -t 0.556521318 -s 7 -d -1 -p AODV -e 48 -c 2 -a 0 -i 0 -k RTR
r -t 0.556521340 -s 1 -d -1 -p AODV -e 48 -c 2 -a 0 -i 0 -k RTR
r -t 0.557879888 -s 3 -d -1 -p AODV -e 48 -c 2 -a 0 -i 0 -k RTR
r -t 0.559182867 -s 3 -d -1 -p AODV -e 48 -c 2 -a 0 -i 0 -k RTR
r -t 0.559182906 -s 12 -d -1 -p AODV -e 48 -c 2 -a 0 -i 0 -k RTR
+ -t 0.560757627 -s 1 -d -1 -p AODV -e 48 -c 2 -a 0 -i 0 -k RTR 
- -t 0.560757627 -s 1 -d -1 -p AODV -e 48 -c 2 -a 0 -i 0 -k RTR
h -t 0.560757627 -s 1 -d -1 -p AODV -e 48 -c 2 -a 0 -i 0 -k RTR
r -t 0.561706176 -s 3 -d -1 -p AODV -e 48 -c 2 -a 0 -i 0 -k RTR
r -t 0.565457892 -s 10 -d 10 -p tcp -e 1040 -c 2 -a 0 -i 6 -k AGT
+ -t 0.565457892 -s 10 -d -1 -p ack -e 40 -c 2 -a 0 -i 9 -k AGT 
- -t 0.565457892 -s 10 -d -1 -p ack -e 40 -c 2 -a 0 -i 9 -k AGT
h -t 0.565457892 -s 10 -d -1 -p ack -e 40 -c 2 -a 0 -i 9 -k AGT
+ -t 0.565457892 -s 10 -d 0 -p ack -e 40 -c 2 -a 0 -i 9 -k RTR 
- -t 0.565457892 -s 10 -d 0 -p ack -e 40 -c 2 -a 0 -i 9 -k RTR
h -t 0.565457892 -s 10 -d 0 -p ack -e 40 -c 2 -a 0 -i 9 -k RTR
+ -t 0.567896354 -s 12 -d -1 -p AODV -e 48 -c 2 -a 0 -i 0 -k RTR 
- -t 0.567896354 -s 12 -d -1 -p AODV -e 48 -c 2 -a 0 -i 0 -k RTR
h -t 0.567896354 -s 12 -d -1 -p AODV -e 48 -c 2 -a 0 -i 0 -k RTR
r -t 0.569384890 -s 2 -d -1 -p AODV -e 48 -c 2 -a 0 -i 0 -k RTR
r -t 0.575284388 -s 10 -d 10 -p tcp -e 1040 -c 2 -a 0 -i 7 -k AGT
+ -t 0.575284388 -s 10 -d -1 -p ack -e 40 -c 2 -a 0 -i 10 -k AGT 
- -t 0.575284388 -s 10 -d -1 -p ack -e 40 -c 2 -a 0 -i 10 -k AGT
h -t 0.575284388 -s 10 -d -1 -p ack -e 40 -c 2 -a 0 -i 10 -k AGT
+ -t 0.575284388 -s 10 -d 0 -p ack -e 40 -c 2 -a 0 -i 10 -k RTR 
- -t 0.575284388 -s 10 -d 0 -p ack -e 40 -c 2 -a 0 -i 10 -k RTR
h -t 0.575284388 -s 10 -d 0 -p ack -e 40 -c 2 -a 0 -i 10 -k RTR
r -t 0.577430263 -s 0 -d 0 -p ack -e 40 -c 2 -a 0 -i 8 -k AGT
+ -t 0.577430263 -s 0 -d -1 -p tcp -e 1040 -c 2 -a 0 -i 11 -k AGT 
- -t 0.577430263 -s 0 -d -1 -p tcp -e 1040 -c 2 -a 0 -i 11 -k AGT
h -t 0.577430263 -s 0 -d -1 -p tcp -e 1040 -c 2 -a 0 -i 11 -k AGT
+ -t 0.577430263 -s 0 -d -1 -p tcp -e 1040 -c 2 -a 0 -i 12 -k AGT 
- -t 0.577430263 -s 0 -d -1 -p tcp -e 1040 -c 2 -a 0 -i 12 -k AGT
h -t 0.577430263 -s 0 -d -1 -p tcp -e 1040 -c 2 -a 0 -i 12 -k AGT
+ -t 0.577430263 -s 0 -d 10 -p tcp -e 1040 -c 2 -a 0 -i 11 -k RTR 
- -t 0.577430263 -s 0 -d 10 -p tcp -e 1040 -c 2 -a 0 -i 11 -k RTR
h -t 0.577430263 -s 0 -d 10 -p tcp -e 1040 -c 2 -a 0 -i 11 -k RTR
+ -t 0.577430263 -s 0 -d 10 -p tcp -e 1040 -c 2 -a 0 -i 12 -k RTR 
- -t 0.577430263 -s 0 -d 10 -p tcp -e 1040 -c 2 -a 0 -i 12 -k RTR
h -t 0.577430263 -s 0 -d 10 -p tcp -e 1040 -c 2 -a 0 -i 12 -k RTR
r -t 0.579516016 -s 5 -d 5 -p tcp -e 40 -c 2 -a 0 -i 1 -k AGT
+ -t 0.579516016 -s 5 -d -1 -p ack -e 40 -c 2 -a 0 -i 13 -k AGT 
- -t 0.579516016 -s 5 -d -1 -p ack -e 40 -c 2 -a 0 -i 13 -k AGT
h -t 0.579516016 -s 5 -d -1 -p ack -e 40 -c 2 -a 0 -i 13 -k AGT
+ -t 0.579516016 -s 5 -d 0 -p ack -e 40 -c 2 -a 0 -i 13 -k RTR 
- -t 0.579516016 -s 5 -d 0 -p ack -e 40 -c 2 -a 0 -i 13 -k RTR
h -t 0.579516016 -s 5 -d 0 -p ack -e 40 -c 2 -a 0 -i 13 -k RTR
r -t 0.581561769 -s 0 -d 0 -p ack -e 40 -c 2 -a 0 -i 13 -k AGT
+ -t 0.581561769 -s 0 -d -1 -p tcp -e 1040 -c 2 -a 0 -i 14 -k AGT 
- -t 0.581561769 -s 0 -d -1 -p tcp -e 1040 -c 2 -a 0 -i 14 -k AGT
h -t 0.581561769 -s 0 -d -1 -p tcp -e 1040 -c 2 -a 0 -i 14 -k AGT
+ -t 0.581561769 -s 0 -d -1 -p tcp -e 1040 -c 2 -a 0 -i 15 -k AGT 
- -t 0.581561769 -s 0 -d -1 -p tcp -e 1040 -c 2 -a 0 -i 15 -k AGT
h -t 0.581561769 -s 0 -d -1 -p tcp -e 1040 -c 2 -a 0 -i 15 -k AGT
+ -t 0.581561769 -s 0 -d 5 -p tcp -e 1040 -c 2 -a 0 -i 14 -k RTR 
- -t 0.581561769 -s 0 -d 5 -p tcp -e 1040 -c 2 -a 0 -i 14 -k RTR
h -t 0.581561769 -s 0 -d 5 -p tcp -e 1040 -c 2 -a 0 -i 14 -k RTR
+ -t 0.581561769 -s 0 -d 5 -p tcp -e 1040 -c 2 -a 0 -i 15 -k RTR 
- -t 0.581561769 -s 0 -d 5 -p tcp -e 1040 -c 2 -a 0 -i 15 -k RTR
h -t 0.581561769 -s 0 -d 5 -p tcp -e 1040 -c 2 -a 0 -i 15 -k RTR
r -t 0.591707645 -s 10 -d 10 -p tcp -e 1040 -c 2 -a 0 -i 11 -k AGT
+ -t 0.591707645 -s 10 -d -1 -p ack -e 40 -c 2 -a 0 -i 16 -k AGT 
- -t 0.591707645 -s 10 -d -1 -p ack -e 40 -c 2 -a 0 -i 16 -k AGT
h -t 0.591707645 -s 10 -d -1 -p ack -e 40 -c 2 -a 0 -i 16 -k AGT
+ -t 0.591707645 -s 10 -d 0 -p ack -e 40 -c 2 -a 0 -i 16 -k RTR 
- -t 0.591707645 -s 10 -d 0 -p ack -e 40 -c 2 -a 0 -i 16 -k RTR
h -t 0.591707645 -s 10 -d 0 -p ack -e 40 -c 2 -a 0 -i 16 -k RTR
r -t 0.593593524 -s 0 -d 0 -p ack -e 40 -c 2 -a 0 -i 9 -k AGT
+ -t 0.593593524 -s 0 -d -1 -p tcp -e 1040 -c 2 -a 0 -i 17 -k AGT 
- -t 0.593593524 -s 0 -d -1 -p tcp -e 1040 -c 2 -a 0 -i 17 -k AGT
h -t 0.593593524 -s 0 -d -1 -p tcp -e 1040 -c 2 -a 0 -i 17 -k AGT
+ -t 0.593593524 -s 0 -d -1 -p tcp -e 1040 -c 2 -a 0 -i 18 -k AGT 
- -t 0.593593524 -s 0 -d -1 -p tcp -e 1040 -c 2 -a 0 -i 18 -k AGT
h -t 0.593593524 -s 0 -d -1 -p tcp -e 1040 -c 2 -a 0 -i 18 -k AGT
+ -t 0.593593524 -s 0 -d 10 -p tcp -e 1040 -c 2 -a 0 -i 17 -k RTR 
- -t 0.593593524 -s 0 -d 10 -p tcp -e 1040 -c 2 -a 0 -i 17 -k RTR
h -t 0.593593524 -s 0 -d 10 -p tcp -e 1040 -c 2 -a 0 -i 17 -k RTR
+ -t 0.593593524 -s 0 -d 10 -p tcp -e 1040 -c 2 -a 0 -i 18 -k RTR 
- -t 0.593593524 -s 0 -d 10 -p tcp -e 1040 -c 2 -a 0 -i 18 -k RTR
h -t 0.593593524 -s 0 -d 10 -p tcp -e 1040 -c 2 -a 0 -i 18 -k RTR
r -t 0.603599403 -s 10 -d 10 -p tcp -e 1040 -c 2 -a 0 -i 12 -k AGT
+ -t 0.603599403 -s 10 -d -1 -p ack -e 40 -c 2 -a 0 -i 19 -k AGT 
- -t 0.603599403 -s 10 -d -1 -p ack -e 40 -c 2 -a 0 -i 19 -k AGT
h -t 0.603599403 -s 10 -d -1 -p ack -e 40 -c 2 -a 0 -i 19 -k AGT
+ -t 0.603599403 -s 10 -d 0 -p ack -e 40 -c 2 -a 0 -i 19 -k RTR 
- -t 0.603599403 -s 10 -d 0 -p ack -e 40 -c 2 -a 0 -i 19 -k RTR
h -t 0.603599403 -s 10 -d 0 -p ack -e 40 -c 2 -a 0 -i 19 -k RTR
r -t 0.613525783 -s 5 -d 5 -p tcp -e 1040 -c 2 -a 0 -i 14 -k AGT
+ -t 0.613525783 -s 5 -d -1 -p ack -e 40 -c 2 -a 0 -i 20 -k AGT 
- -t 0.613525783 -s 5 -d -1 -p ack -e 40 -c 2 -a 0 -i 20 -k AGT
h -t 0.613525783 -s 5 -d -1 -p ack -e 40 -c 2 -a 0 -i 20 -k AGT
+ -t 0.613525783 -s 5 -d 0 -p ack -e 40 -c 2 -a 0 -i 20 -k RTR 
- -t 0.613525783 -s 5 -d 0 -p ack -e 40 -c 2 -a 0 -i 20 -k RTR
h -t 0.613525783 -s 5 -d 0 -p ack -e 40 -c 2 -a 0 -i 20 -k RTR
r -t 0.623352118 -s 5 -d 5 -p tcp -e 1040 -c 2 -a 0 -i 15 -k AGT
+ -t 0.623352118 -s 5 -d -1 -p ack -e 40 -c 2 -a 0 -i 21 -k AGT 
- -t 0.623352118 -s 5 -d -1 -p ack -e 40 -c 2 -a 0 -i 21 -k AGT
h -t 0.623352118 -s 5 -d -1 -p ack -e 40 -c 2 -a 0 -i 21 -k AGT
+ -t 0.623352118 -s 5 -d 0 -p ack -e 40 -c 2 -a 0 -i 21 -k RTR 
- -t 0.623352118 -s 5 -d 0 -p ack -e 40 -c 2 -a 0 -i 21 -k RTR
h -t 0.623352118 -s 5 -d 0 -p ack -e 40 -c 2 -a 0 -i 21 -k RTR
r -t 0.625357870 -s 0 -d 0 -p ack -e 40 -c 2 -a 0 -i 20 -k AGT
+ -t 0.625357870 -s 0 -d -1 -p tcp -e 1040 -c 2 -a 0 -i 22 -k AGT 
- -t 0.625357870 -s 0 -d -1 -p tcp -e 1040 -c 2 -a 0 -i 22 -k AGT
h -t 0.625357870 -s 0 -d -1 -p tcp -e 1040 -c 2 -a 0 -i 22 -k AGT
+ -t 0.625357870 -s 0 -d -1 -p tcp -e 1040 -c 2 -a 0 -i 23 -k AGT 
- -t 0.625357870 -s 0 -d -1 -p tcp -e 1040 -c 2 -a 0 -i 23 -k AGT
h -t 0.625357870 -s 0 -d -1 -p tcp -e 1040 -c 2 -a 0 -i 23 -k AGT
+ -t 0.625357870 -s 0 -d 5 -p tcp -e 1040 -c 2 -a 0 -i 22 -k RTR 
- -t 0.625357870 -s 0 -d 5 -p tcp -e 1040 -c 2 -a 0 -i 22 -k RTR
h -t 0.625357870 -s 0 -d 5 -p tcp -e 1040 -c 2 -a 0 -i 22 -k RTR
+ -t 0.625357870 -s 0 -d 5 -p tcp -e 1040 -c 2 -a 0 -i 23 -k RTR 
- -t 0.625357870 -s 0 -d 5 -p tcp -e 1040 -c 2 -a 0 -i 23 -k RTR
h -t 0.625357870 -s 0 -d 5 -p tcp -e 1040 -c 2 -a 0 -i 23 -k RTR
r -t 0.635403757 -s 10 -d 10 -p tcp -e 1040 -c 2 -a 0 -i 17 -k AGT
+ -t 0.635403757 -s 10 -d -1 -p ack -e 40 -c 2 -a 0 -i 24 -k AGT 
- -t 0.635403757 -s 10 -d -1 -p ack -e 40 -c 2 -a 0 -i 24 -k AGT
h -t 0.635403757 -s 10 -d -1 -p ack -e 40 -c 2 -a 0 -i 24 -k AGT
+ -t 0.635403757 -s 10 -d 0 -p ack -e 40 -c 2 -a 0 -i 24 -k RTR 
- -t 0.635403757 -s 10 -d 0 -p ack -e 40 -c 2 -a 0 -i 24 -k RTR
h -t 0.635403757 -s 10 -d 0 -p ack -e 40 -c 2 -a 0 -i 24 -k RTR
r -t 0.637309646 -s 0 -d 0 -p ack -e 40 -c 2 -a 0 -i 10 -k AGT
+ -t 0.637309646 -s 0 -d -1 -p tcp -e 1040 -c 2 -a 0 -i 25 -k AGT 
- -t 0.637309646 -s 0 -d -1 -p tcp -e 1040 -c 2 -a 0 -i 25 -k AGT
h -t 0.637309646 -s 0 -d -1 -p tcp -e 1040 -c 2 -a 0 -i 25 -k AGT
+ -t 0.637309646 -s 0 -d -1 -p tcp -e 1040 -c 2 -a 0 -i 26 -k AGT 
- -t 0.637309646 -s 0 -d -1 -p tcp -e 1040 -c 2 -a 0 -i 26 -k AGT
h -t 0.637309646 -s 0 -d -1 -p tcp -e 1040 -c 2 -a 0 -i 26 -k AGT
+ -t 0.637309646 -s 0 -d 10 -p tcp -e 1040 -c 2 -a 0 -i 25 -k RTR 
- -t 0.637309646 -s 0 -d 10 -p tcp -e 1040 -c 2 -a 0 -i 25 -k RTR
h -t 0.637309646 -s 0 -d 10 -p tcp -e 1040 -c 2 -a 0 -i 25 -k RTR
+ -t 0.637309646 -s 0 -d 10 -p tcp -e 1040 -c 2 -a 0 -i 26 -k RTR 
- -t 0.637309646 -s 0 -d 10 -p tcp -e 1040 -c 2 -a 0 -i 26 -k RTR
h -t 0.637309646 -s 0 -d 10 -p tcp -e 1040 -c 2 -a 0 -i 26 -k RTR
r -t 0.639136166 -s 0 -d 0 -p ack -e 40 -c 2 -a 0 -i 16 -k AGT
+ -t 0.639136166 -s 0 -d -1 -p tcp -e 1040 -c 2 -a 0 -i 27 -k AGT 
- -t 0.639136166 -s 0 -d -1 -p tcp -e 1040 -c 2 -a 0 -i 27 -k AGT
h -t 0.639136166 -s 0 -d -1 -p tcp -e 1040 -c 2 -a 0 -i 27 -k AGT
+ -t 0.639136166 -s 0 -d -1 -p tcp -e 1040 -c 2 -a 0 -i 28 -k AGT 
- -t 0.639136166 -s 0 -d -1 -p tcp -e 1040 -c 2 -a 0 -i 28 -k AGT
h -t 0.639136166 -s 0 -d -1 -p tcp -e 1040 -c 2 -a 0 -i 28 -k AGT
+ -t 0.639136166 -s 0 -d 10 -p tcp -e 1040 -c 2 -a 0 -i 27 -k RTR 
- -t 0.639136166 -s 0 -d 10 -p tcp -e 1040 -c 2 -a 0 -i 27 -k RTR
h -t 0.639136166 -s 0 -d 10 -p tcp -e 1040 -c 2 -a 0 -i 27 -k RTR
+ -t 0.639136166 -s 0 -d 10 -p tcp -e 1040 -c 2 -a 0 -i 28 -k RTR 
- -t 0.639136166 -s 0 -d 10 -p tcp -e 1040 -c 2 -a 0 -i 28 -k RTR
h -t 0.639136166 -s 0 -d 10 -p tcp -e 1040 -c 2 -a 0 -i 28 -k RTR
r -t 0.641082686 -s 0 -d 0 -p ack -e 40 -c 2 -a 0 -i 19 -k AGT
+ -t 0.641082686 -s 0 -d -1 -p tcp -e 1040 -c 2 -a 0 -i 29 -k AGT 
- -t 0.641082686 -s 0 -d -1 -p tcp -e 1040 -c 2 -a 0 -i 29 -k AGT
h -t 0.641082686 -s 0 -d -1 -p tcp -e 1040 -c 2 -a 0 -i 29 -k AGT
+ -t 0.641082686 -s 0 -d -1 -p tcp -e 1040 -c 2 -a 0 -i 30 -k AGT 
- -t 0.641082686 -s 0 -d -1 -p tcp -e 1040 -c 2 -a 0 -i 30 -k AGT
h -t 0.641082686 -s 0 -d -1 -p tcp -e 1040 -c 2 -a 0 -i 30 -k AGT
+ -t 0.641082686 -s 0 -d 10 -p tcp -e 1040 -c 2 -a 0 -i 29 -k RTR 
- -t 0.641082686 -s 0 -d 10 -p tcp -e 1040 -c 2 -a 0 -i 29 -k RTR
h -t 0.641082686 -s 0 -d 10 -p tcp -e 1040 -c 2 -a 0 -i 29 -k RTR
+ -t 0.641082686 -s 0 -d 10 -p tcp -e 1040 -c 2 -a 0 -i 30 -k RTR 
- -t 0.641082686 -s 0 -d 10 -p tcp -e 1040 -c 2 -a 0 -i 30 -k RTR
h -t 0.641082686 -s 0 -d 10 -p tcp -e 1040 -c 2 -a 0 -i 30 -k RTR
r -t 0.650948576 -s 10 -d 10 -p tcp -e 1040 -c 2 -a 0 -i 18 -k AGT
+ -t 0.650948576 -s 10 -d -1 -p ack -e 40 -c 2 -a 0 -i 31 -k AGT 
- -t 0.650948576 -s 10 -d -1 -p ack -e 40 -c 2 -a 0 -i 31 -k AGT
h -t 0.650948576 -s 10 -d -1 -p ack -e 40 -c 2 -a 0 -i 31 -k AGT
+ -t 0.650948576 -s 10 -d 0 -p ack -e 40 -c 2 -a 0 -i 31 -k RTR 
- -t 0.650948576 -s 10 -d 0 -p ack -e 40 -c 2 -a 0 -i 31 -k RTR
h -t 0.650948576 -s 10 -d 0 -p ack -e 40 -c 2 -a 0 -i 31 -k RTR
r -t 0.652251442 -s 6 -d -1 -p AODV -e 48 -c 2 -a 0 -i 0 -k RTR
r -t 0.652251679 -s 10 -d -1 -p AODV -e 48 -c 2 -a 0 -i 0 -k RTR
r -t 0.652251799 -s 4 -d -1 -p AODV -e 48 -c 2 -a 0 -i 0 -k RTR
r -t 0.653190268 -s 6 -d -1 -p AODV -e 48 -c 2 -a 0 -i 0 -k RTR
r -t 0.653190303 -s 7 -d -1 -p AODV -e 48 -c 2 -a 0 -i 0 -k RTR
r -t 0.653190359 -s 12 -d -1 -p AODV -e 48 -c 2 -a 0 -i 0 -k RTR
r -t 0.653190411 -s 2 -d -1 -p AODV -e 48 -c 2 -a 0 -i 0 -k RTR
r -t 0.653190506 -s 11 -d -1 -p AODV -e 48 -c 2 -a 0 -i 0 -k RTR
r -t 0.653190554 -s 9 -d -1 -p AODV -e 48 -c 2 -a 0 -i 0 -k RTR
r -t 0.653190554 -s 3 -d -1 -p AODV -e 48 -c 2 -a 0 -i 0 -k RTR
r -t 0.654473389 -s 9 -d -1 -p AODV -e 48 -c 2 -a 0 -i 0 -k RTR
r -t 0.654473392 -s 1 -d -1 -p AODV -e 48 -c 2 -a 0 -i 0 -k RTR
r -t 0.654473452 -s 7 -d -1 -p AODV -e 48 -c 2 -a 0 -i 0 -k RTR
r -t 0.654473511 -s 13 -d -1 -p AODV -e 48 -c 2 -a 0 -i 0 -k RTR
r -t 0.664410051 -s 5 -d 5 -p tcp -e 1040 -c 2 -a 0 -i 22 -k AGT
+ -t 0.664410051 -s 5 -d -1 -p ack -e 40 -c 2 -a 0 -i 32 -k AGT 
- -t 0.664410051 -s 5 -d -1 -p ack -e 40 -c 2 -a 0 -i 32 -k AGT
h -t 0.664410051 -s 5 -d -1 -p ack -e 40 -c 2 -a 0 -i 32 -k AGT
+ -t 0.664410051 -s 5 -d 0 -p ack -e 40 -c 2 -a 0 -i 32 -k RTR 