M 0.00000 1 (537.00, 236.00, 0.00), (537.00, 249.00), 25.00
M 0.00000 2 (587.00, 540.00, 0.00), (588.00, 561.00), 25.00
M 0.00000 3 (589.00, 391.00, 0.00), (590.00, 409.00), 25.00
M 0.00000 4 (405.00, 538.00, 0.00), (405.00, 538.00), 25.00
M 0.00000 5 (57.00, 222.00, 0.00), (81.00, 241.00), 25.00
M 0.00000 6 (254.00, 528.00, 0.00), (267.00, 544.00), 25.00
M 0.00000 7 (432.00, 373.00, 0.00), (433.00, 391.00), 25.00
M 0.00000 8 (378.00, 204.00, 0.00), (381.00, 222.00), 25.00
M 0.00000 9 (285.00, 346.00, 0.00), (285.00, 346.00), 25.00
M 0.00000 10 (55.00, 540.00, 0.00), (61.00, 576.00), 25.00
M 0.00000 11 (218.00, 650.00, 0.00), (214.00, 621.00), 25.00
M 0.00000 12 (479.00, 671.00, 0.00), (495.00, 687.00), 25.00
M 0.00000 13 (182.00, 172.00, 0.00), (195.00, 200.00), 25.00
M 0.00000 14 (123.00, 364.00, 0.00), (141.00, 377.00), 25.00
v 0 eval {set sim_annotation {Network Deployed}}
v 0 eval {set sim_annotation {NODE0 became a SOURCE}}
v 0 eval {set sim_annotation {NODE7 becme a DESTINATION}}
v 0.5 eval {set sim_annotation {NODE0 flood FAKE-RREQ packets with FAKE-DESTINATION-ADDRESS}}
s 0.500000000 _0_ AGT  --- 0 tcp 40 [0 0 0 0] ------- [0:2 10:2 32 0] [0 0] 0 0
r 0.500000000 _0_ RTR  --- 0 tcp 40 [0 0 0 0] ------- [0:2 10:2 32 0] [0 0] 0 0
s 0.500000000 _0_ AGT  --- 1 tcp 40 [0 0 0 0] ------- [0:3 5:0 32 0] [0 0] 0 0
r 0.500000000 _0_ RTR  --- 1 tcp 40 [0 0 0 0] ------- [0:3 5:0 32 0] [0 0] 0 0
s 0.500000000 _0_ RTR  --- 0 AODV 48 [0 0 0 0] ------- [0:255 -1:255 30 0] [0x2 1 1 [10 0] [0 4]] (REQUEST)
s 0.500000000 _0_ RTR  --- 0 AODV 48 [0 0 0 0] ------- [0:255 -1:255 30 0] [0x2 1 2 [5 0] [0 6]] (REQUEST)
r 0.501128509 _14_ RTR  --- 0 AODV 48 [0 ffffffff 0 800] ------- [0:255 -1:255 30 0] [0x2 1 1 [10 0] [0 4]] (REQUEST)
r 0.501128585 _5_ RTR  --- 0 AODV 48 [0 ffffffff 0 800] ------- [0:255 -1:255 30 0] [0x2 1 1 [10 0] [0 4]] (REQUEST)
r 0.501128619 _10_ RTR  --- 0 AODV 48 [0 ffffffff 0 800] ------- [0:255 -1:255 30 0] [0x2 1 1 [10 0] [0 4]] (REQUEST)
s 0.501128619 _10_ RTR  --- 0 AODV 44 [0 0 0 0] ------- [10:255 0:255 30 0] [0x4 1 [10 4] 10.000000] (REPLY)
r 0.503055746 _14_ RTR  --- 0 AODV 48 [0 ffffffff 0 800] ------- [0:255 -1:255 30 0] [0x2 1 2 [5 0] [0 6]] (REQUEST)
r 0.503055823 _5_ RTR  --- 0 AODV 48 [0 ffffffff 0 800] ------- [0:255 -1:255 30 0] [0x2 1 2 [5 0] [0 6]] (REQUEST)
s 0.503055823 _5_ RTR  --- 0 AODV 44 [0 0 0 0] ------- [5:255 0:255 30 0] [0x4 1 [5 4] 10.000000] (REPLY)
r 0.503055857 _10_ RTR  --- 0 AODV 48 [0 ffffffff 0 800] ------- [0:255 -1:255 30 0] [0x2 1 2 [5 0] [0 6]] (REQUEST)
s 0.503331431 _10_ RTR  --- 0 AODV 48 [0 ffffffff 0 800] ------- [10:255 -1:255 29 0] [0x2 2 2 [5 0] [0 6]] (REQUEST)
r 0.505963696 _11_ RTR  --- 0 AODV 48 [0 ffffffff a 800] ------- [10:255 -1:255 29 0] [0x2 2 2 [5 0] [0 6]] (REQUEST)
r 0.505963714 _0_ RTR  --- 0 AODV 48 [0 ffffffff a 800] ------- [10:255 -1:255 29 0] [0x2 2 2 [5 0] [0 6]] (REQUEST)
r 0.505963750 _14_ RTR  --- 0 AODV 48 [0 ffffffff a 800] ------- [10:255 -1:255 29 0] [0x2 2 2 [5 0] [0 6]] (REQUEST)
r 0.505963779 _6_ RTR  --- 0 AODV 48 [0 ffffffff a 800] ------- [10:255 -1:255 29 0] [0x2 2 2 [5 0] [0 6]] (REQUEST)
s 0.506576805 _5_ RTR  --- 0 AODV 48 [0 ffffffff 0 800] ------- [5:255 -1:255 29 0] [0x2 2 1 [10 0] [0 4]] (REQUEST)
s 0.507312619 _14_ RTR  --- 0 AODV 48 [0 ffffffff 0 800] ------- [14:255 -1:255 29 0] [0x2 2 2 [5 0] [0 6]] (REQUEST)
r 0.507746953 _0_ RTR  --- 0 AODV 44 [13a 0 a 800] ------- [10:255 0:255 30 0] [0x4 1 [10 4] 10.000000] (REPLY)
s 0.507746953 _0_ RTR  --- 0 tcp 40 [0 0 0 0] ------- [0:2 10:2 30 10] [0 0] 0 0
s 0.508115241 _14_ RTR  --- 0 AODV 48 [0 ffffffff 0 800] ------- [14:255 -1:255 29 0] [0x2 2 1 [10 0] [0 4]] (REQUEST)
r 0.508979971 _0_ RTR  --- 0 AODV 48 [0 ffffffff e 800] ------- [14:255 -1:255 29 0] [0x2 2 2 [5 0] [0 6]] (REQUEST)
r 0.508979974 _9_ RTR  --- 0 AODV 48 [0 ffffffff e 800] ------- [14:255 -1:255 29 0] [0x2 2 2 [5 0] [0 6]] (REQUEST)
r 0.508979983 _5_ RTR  --- 0 AODV 48 [0 ffffffff e 800] ------- [14:255 -1:255 29 0] [0x2 2 2 [5 0] [0 6]] (REQUEST)
r 0.508980113 _13_ RTR  --- 0 AODV 48 [0 ffffffff e 800] ------- [14:255 -1:255 29 0] [0x2 2 2 [5 0] [0 6]] (REQUEST)
r 0.508980117 _10_ RTR  --- 0 AODV 48 [0 ffffffff e 800] ------- [14:255 -1:255 29 0] [0x2 2 2 [5 0] [0 6]] (REQUEST)
r 0.508980163 _6_ RTR  --- 0 AODV 48 [0 ffffffff e 800] ------- [14:255 -1:255 29 0] [0x2 2 2 [5 0] [0 6]] (REQUEST)
s 0.509893544 _9_ RTR  --- 0 AODV 48 [0 ffffffff e 800] ------- [9:255 -1:255 28 0] [0x2 3 2 [5 0] [0 6]] (REQUEST)
r 0.509997971 _0_ RTR  --- 0 AODV 48 [0 ffffffff e 800] ------- [14:255 -1:255 29 0] [0x2 2 1 [10 0] [0 4]] (REQUEST)
r 0.509997974 _9_ RTR  --- 0 AODV 48 [0 ffffffff e 800] ------- [14:255 -1:255 29 0] [0x2 2 1 [10 0] [0 4]] (REQUEST)
r 0.509997983 _5_ RTR  --- 0 AODV 48 [0 ffffffff e 800] ------- [14:255 -1:255 29 0] [0x2 2 1 [10 0] [0 4]] (REQUEST)
r 0.509998113 _13_ RTR  --- 0 AODV 48 [0 ffffffff e 800] ------- [14:255 -1:255 29 0] [0x2 2 1 [10 0] [0 4]] (REQUEST)
r 0.509998117 _10_ RTR  --- 0 AODV 48 [0 ffffffff e 800] ------- [14:255 -1:255 29 0] [0x2 2 1 [10 0] [0 4]] (REQUEST)
r 0.509998163 _6_ RTR  --- 0 AODV 48 [0 ffffffff e 800] ------- [14:255 -1:255 29 0] [0x2 2 1 [10 0] [0 4]] (REQUEST)
r 0.511974413 _13_ RTR  --- 0 AODV 48 [0 ffffffff 5 800] ------- [5:255 -1:255 29 0] [0x2 2 1 [10 0] [0 4]] (REQUEST)
r 0.511974504 _14_ RTR  --- 0 AODV 48 [0 ffffffff 5 800] ------- [5:255 -1:255 29 0] [0x2 2 1 [10 0] [0 4]] (REQUEST)
r 0.511974568 _0_ RTR  --- 0 AODV 48 [0 ffffffff 5 800] ------- [5:255 -1:255 29 0] [0x2 2 1 [10 0] [0 4]] (REQUEST)
r 0.511974806 _9_ RTR  --- 0 AODV 48 [0 ffffffff 5 800] ------- [5:255 -1:255 29 0] [0x2 2 1 [10 0] [0 4]] (REQUEST)
r 0.513506427 _10_ AGT  --- 0 tcp 40 [13a a 0 800] ------- [0:2 10:2 30 10] [0 0] 1 0
s 0.513506427 _10_ AGT  --- 2 ack 40 [0 0 0 0] ------- [10:2 0:2 32 0] [0 0] 0 0
r 0.513506427 _10_ RTR  --- 2 ack 40 [0 0 0 0] ------- [10:2 0:2 32 0] [0 0] 0 0
s 0.513506427 _10_ RTR  --- 2 ack 40 [0 0 0 0] ------- [10:2 0:2 30 0] [0 0] 0 0
s 0.513690737 _6_ RTR  --- 0 AODV 48 [0 ffffffff a 800] ------- [6:255 -1:255 28 0] [0x2 3 2 [5 0] [0 6]] (REQUEST)
s 0.513897331 _13_ RTR  --- 0 AODV 48 [0 ffffffff e 800] ------- [13:255 -1:255 28 0] [0x2 3 2 [5 0] [0 6]] (REQUEST)
s 0.514210364 _6_ RTR  --- 0 AODV 48 [0 ffffffff e 800] ------- [6:255 -1:255 28 0] [0x2 3 1 [10 0] [0 4]] (REQUEST)
s 0.515326960 _9_ RTR  --- 0 AODV 48 [0 ffffffff e 800] ------- [9:255 -1:255 28 0] [0x2 3 1 [10 0] [0 4]] (REQUEST)
r 0.515352287 _0_ AGT  --- 2 ack 40 [13a 0 a 800] ------- [10:2 0:2 30 0] [0 0] 1 0
s 0.515352287 _0_ AGT  --- 3 tcp 1040 [0 0 0 0] ------- [0:2 10:2 32 0] [1 0] 0 0
r 0.515352287 _0_ RTR  --- 3 tcp 1040 [0 0 0 0] ------- [0:2 10:2 32 0] [1 0] 0 0
s 0.515352287 _0_ AGT  --- 4 tcp 1040 [0 0 0 0] ------- [0:2 10:2 32 0] [2 0] 0 0
r 0.515352287 _0_ RTR  --- 4 tcp 1040 [0 0 0 0] ------- [0:2 10:2 32 0] [2 0] 0 0
s 0.515352287 _0_ RTR  --- 3 tcp 1040 [0 0 0 0] ------- [0:2 10:2 30 10] [1 0] 0 0
s 0.515352287 _0_ RTR  --- 4 tcp 1040 [0 0 0 0] ------- [0:2 10:2 30 10] [2 0] 0 0
s 0.515431858 _11_ RTR  --- 0 AODV 48 [0 ffffffff a 800] ------- [11:255 -1:255 28 0] [0x2 3 2 [5 0] [0 6]] (REQUEST)
s 0.517349025 _13_ RTR  --- 0 AODV 48 [0 ffffffff e 800] ------- [13:255 -1:255 28 0] [0x2 3 1 [10 0] [0 4]] (REQUEST)
r 0.527348488 _10_ AGT  --- 3 tcp 1040 [13a a 0 800] ------- [0:2 10:2 30 10] [1 0] 1 0
s 0.527348488 _10_ AGT  --- 5 ack 40 [0 0 0 0] ------- [10:2 0:2 32 0] [1 0] 0 0
r 0.527348488 _10_ RTR  --- 5 ack 40 [0 0 0 0] ------- [10:2 0:2 32 0] [1 0] 0 0
s 0.527348488 _10_ RTR  --- 5 ack 40 [0 0 0 0] ------- [10:2 0:2 30 0] [1 0] 0 0
r 0.528671302 _11_ RTR  --- 0 AODV 48 [0 ffffffff 6 800] ------- [6:255 -1:255 28 0] [0x2 3 2 [5 0] [0 6]] (REQUEST)
r 0.528671414 _4_ RTR  --- 0 AODV 48 [0 ffffffff 6 800] ------- [6:255 -1:255 28 0] [0x2 3 2 [5 0] [0 6]] (REQUEST)
r 0.528671584 _9_ RTR  --- 0 AODV 48 [0 ffffffff 6 800] ------- [6:255 -1:255 28 0] [0x2 3 2 [5 0] [0 6]] (REQUEST)
r 0.528671624 _10_ RTR  --- 0 AODV 48 [0 ffffffff 6 800] ------- [6:255 -1:255 28 0] [0x2 3 2 [5 0] [0 6]] (REQUEST)
r 0.528671640 _14_ RTR  --- 0 AODV 48 [0 ffffffff 6 800] ------- [6:255 -1:255 28 0] [0x2 3 2 [5 0] [0 6]] (REQUEST)
r 0.528671700 _7_ RTR  --- 0 AODV 48 [0 ffffffff 6 800] ------- [6:255 -1:255 28 0] [0x2 3 2 [5 0] [0 6]] (REQUEST)
r 0.529630094 _7_ RTR  --- 0 AODV 48 [0 ffffffff 9 800] ------- [9:255 -1:255 28 0] [0x2 3 2 [5 0] [0 6]] (REQUEST)
r 0.529630095 _14_ RTR  --- 0 AODV 48 [0 ffffffff 9 800] ------- [9:255 -1:255 28 0] [0x2 3 2 [5 0] [0 6]] (REQUEST)
r 0.529630118 _8_ RTR  --- 0 AODV 48 [0 ffffffff 9 800] ------- [9:255 -1:255 28 0] [0x2 3 2 [5 0] [0 6]] (REQUEST)
r 0.529630214 _13_ RTR  --- 0 AODV 48 [0 ffffffff 9 800] ------- [9:255 -1:255 28 0] [0x2 3 2 [5 0] [0 6]] (REQUEST)
s 0.530171584 _7_ RTR  --- 0 AODV 48 [0 ffffffff 6 800] ------- [7:255 -1:255 27 0] [0x2 4 2 [5 0] [0 6]] (REQUEST)
r 0.531232809 _7_ RTR  --- 0 AODV 48 [0 ffffffff 9 800] ------- [9:255 -1:255 28 0] [0x2 3 1 [10 0] [0 4]] (REQUEST)
r 0.531232832 _8_ RTR  --- 0 AODV 48 [0 ffffffff 9 800] ------- [9:255 -1:255 28 0] [0x2 3 1 [10 0] [0 4]] (REQUEST)
r 0.531233053 _4_ RTR  --- 0 AODV 48 [0 ffffffff 9 800] ------- [9:255 -1:255 28 0] [0x2 3 1 [10 0] [0 4]] (REQUEST)
s 0.531560976 _4_ RTR  --- 0 AODV 48 [0 ffffffff 9 800] ------- [4:255 -1:255 27 0] [0x2 4 1 [10 0] [0 4]] (REQUEST)
r 0.533209188 _0_ AGT  --- 5 ack 40 [13a 0 a 800] ------- [10:2 0:2 30 0] [1 0] 1 0
s 0.533209188 _0_ AGT  --- 6 tcp 1040 [0 0 0 0] ------- [0:2 10:2 32 0] [3 0] 0 0
r 0.533209188 _0_ RTR  --- 6 tcp 1040 [0 0 0 0] ------- [0:2 10:2 32 0] [3 0] 0 0
s 0.533209188 _0_ AGT  --- 7 tcp 1040 [0 0 0 0] ------- [0:2 10:2 32 0] [4 0] 0 0
r 0.533209188 _0_ RTR  --- 7 tcp 1040 [0 0 0 0] ------- [0:2 10:2 32 0] [4 0] 0 0
s 0.533209188 _0_ RTR  --- 6 tcp 1040 [0 0 0 0] ------- [0:2 10:2 30 10] [3 0] 0 0
s 0.533209188 _0_ RTR  --- 7 tcp 1040 [0 0 0 0] ------- [0:2 10:2 30 10] [4 0] 0 0
s 0.533366157 _8_ RTR  --- 0 AODV 48 [0 ffffffff 9 800] ------- [8:255 -1:255 27 0] [0x2 4 2 [5 0] [0 6]] (REQUEST)
r 0.535137399 _0_ RTR  --- 0 AODV 44 [13a 0 5 800] ------- [5:255 0:255 30 0] [0x4 1 [5 4] 10.000000] (REPLY)
s 0.535137399 _0_ RTR  --- 1 tcp 40 [0 0 0 0] ------- [0:3 5:0 30 5] [0 0] 0 0
s 0.535306673 _4_ RTR  --- 0 AODV 48 [0 ffffffff 6 800] ------- [4:255 -1:255 27 0] [0x2 4 2 [5 0] [0 6]] (REQUEST)
s 0.538189707 _7_ RTR  --- 0 AODV 48 [0 ffffffff 9 800] ------- [7:255 -1:255 27 0] [0x2 4 1 [10 0] [0 4]] (REQUEST)
s 0.540352224 _8_ RTR  --- 0 AODV 48 [0 ffffffff 9 800] ------- [8:255 -1:255 27 0] [0x2 4 1 [10 0] [0 4]] (REQUEST)
r 0.545023264 _10_ AGT  --- 4 tcp 1040 [13a a 0 800] ------- [0:2 10:2 30 10] [2 0] 1 0
s 0.545023264 _10_ AGT  --- 8 ack 40 [0 0 0 0] ------- [10:2 0:2 32 0] [2 0] 0 0
r 0.545023264 _10_ RTR  --- 8 ack 40 [0 0 0 0] ------- [10:2 0:2 32 0] [2 0] 0 0
s 0.545023264 _10_ RTR  --- 8 ack 40 [0 0 0 0] ------- [10:2 0:2 30 0] [2 0] 0 0
r 0.546326075 _11_ RTR  --- 0 AODV 48 [0 ffffffff 6 800] ------- [6:255 -1:255 28 0] [0x2 3 1 [10 0] [0 4]] (REQUEST)
r 0.546326188 _4_ RTR  --- 0 AODV 48 [0 ffffffff 6 800] ------- [6:255 -1:255 28 0] [0x2 3 1 [10 0] [0 4]] (REQUEST)
r 0.546326360 _9_ RTR  --- 0 AODV 48 [0 ffffffff 6 800] ------- [6:255 -1:255 28 0] [0x2 3 1 [10 0] [0 4]] (REQUEST)
r 0.546326400 _10_ RTR  --- 0 AODV 48 [0 ffffffff 6 800] ------- [6:255 -1:255 28 0] [0x2 3 1 [10 0] [0 4]] (REQUEST)
r 0.546326415 _14_ RTR  --- 0 AODV 48 [0 ffffffff 6 800] ------- [6:255 -1:255 28 0] [0x2 3 1 [10 0] [0 4]] (REQUEST)
r 0.546326474 _7_ RTR  --- 0 AODV 48 [0 ffffffff 6 800] ------- [6:255 -1:255 28 0] [0x2 3 1 [10 0] [0 4]] (REQUEST)
r 0.547244985 _9_ RTR  --- 0 AODV 48 [0 ffffffff 7 800] ------- [7:255 -1:255 27 0] [0x2 4 2 [5 0] [0 6]] (REQUEST)
r 0.547244987 _4_ RTR  --- 0 AODV 48 [0 ffffffff 7 800] ------- [7:255 -1:255 27 0] [0x2 4 2 [5 0] [0 6]] (REQUEST)
r 0.547245001 _3_ RTR  --- 0 AODV 48 [0 ffffffff 7 800] ------- [7:255 -1:255 27 0] [0x2 4 2 [5 0] [0 6]] (REQUEST)
r 0.547245050 _1_ RTR  --- 0 AODV 48 [0 ffffffff 7 800] ------- [7:255 -1:255 27 0] [0x2 4 2 [5 0] [0 6]] (REQUEST)
r 0.547245065 _8_ RTR  --- 0 AODV 48 [0 ffffffff 7 800] ------- [7:255 -1:255 27 0] [0x2 4 2 [5 0] [0 6]] (REQUEST)
r 0.547245233 _2_ RTR  --- 0 AODV 48 [0 ffffffff 7 800] ------- [7:255 -1:255 27 0] [0x2 4 2 [5 0] [0 6]] (REQUEST)
r 0.547245235 _6_ RTR  --- 0 AODV 48 [0 ffffffff 7 800] ------- [7:255 -1:255 27 0] [0x2 4 2 [5 0] [0 6]] (REQUEST)
s 0.547564415 _3_ RTR  --- 0 AODV 48 [0 ffffffff 7 800] ------- [3:255 -1:255 26 0] [0x2 5 2 [5 0] [0 6]] (REQUEST)
r 0.548163462 _6_ RTR  --- 0 AODV 48 [0 ffffffff 4 800] ------- [4:255 -1:255 27 0] [0x2 4 1 [10 0] [0 4]] (REQUEST)
r 0.548163500 _7_ RTR  --- 0 AODV 48 [0 ffffffff 4 800] ------- [4:255 -1:255 27 0] [0x2 4 1 [10 0] [0 4]] (REQUEST)
r 0.548163538 _12_ RTR  --- 0 AODV 48 [0 ffffffff 4 800] ------- [4:255 -1:255 27 0] [0x2 4 1 [10 0] [0 4]] (REQUEST)
r 0.548163598 _2_ RTR  --- 0 AODV 48 [0 ffffffff 4 800] ------- [4:255 -1:255 27 0] [0x2 4 1 [10 0] [0 4]] (REQUEST)
r 0.548163697 _11_ RTR  --- 0 AODV 48 [0 ffffffff 4 800] ------- [4:255 -1:255 27 0] [0x2 4 1 [10 0] [0 4]] (REQUEST)
r 0.548163742 _9_ RTR  --- 0 AODV 48 [0 ffffffff 4 800] ------- [4:255 -1:255 27 0] [0x2 4 1 [10 0] [0 4]] (REQUEST)
r 0.548163747 _3_ RTR  --- 0 AODV 48 [0 ffffffff 4 800] ------- [4:255 -1:255 27 0] [0x2 4 1 [10 0] [0 4]] (REQUEST)
s 0.548323718 _3_ RTR  --- 0 AODV 48 [0 ffffffff 4 800] ------- [3:255 -1:255 26 0] [0x2 5 1 [10 0] [0 4]] (REQUEST)
r 0.549082243 _2_ RTR  --- 0 AODV 48 [0 ffffffff 3 800] ------- [3:255 -1:255 26 0] [0x2 5 2 [5 0] [0 6]] (REQUEST)
r 0.549082273 _7_ RTR  --- 0 AODV 48 [0 ffffffff 3 800] ------- [3:255 -1:255 26 0] [0x2 5 2 [5 0] [0 6]] (REQUEST)
r 0.549082295 _1_ RTR  --- 0 AODV 48 [0 ffffffff 3 800] ------- [3:255 -1:255 26 0] [0x2 5 2 [5 0] [0 6]] (REQUEST)
s 0.550239749 _2_ RTR  --- 0 AODV 48 [0 ffffffff 4 800] ------- [2:255 -1:255 26 0] [0x2 5 1 [10 0] [0 4]] (REQUEST)
r 0.550445703 _5_ RTR  --- 0 AODV 48 [0 ffffffff d 800] ------- [13:255 -1:255 28 0] [0x2 3 2 [5 0] [0 6]] (REQUEST)
r 0.550445903 _9_ RTR  --- 0 AODV 48 [0 ffffffff d 800] ------- [13:255 -1:255 28 0] [0x2 3 2 [5 0] [0 6]] (REQUEST)
r 0.550445925 _14_ RTR  --- 0 AODV 48 [0 ffffffff d 800] ------- [13:255 -1:255 28 0] [0x2 3 2 [5 0] [0 6]] (REQUEST)
r 0.550445925 _8_ RTR  --- 0 AODV 48 [0 ffffffff d 800] ------- [13:255 -1:255 28 0] [0x2 3 2 [5 0] [0 6]] (REQUEST)
r 0.551363703 _5_ RTR  --- 0 AODV 48 [0 ffffffff d 800] ------- [13:255 -1:255 28 0] [0x2 3 1 [10 0] [0 4]] (REQUEST)
r 0.551363903 _9_ RTR  --- 0 AODV 48 [0 ffffffff d 800] ------- [13:255 -1:255 28 0] [0x2 3 1 [10 0] [0 4]] (REQUEST)
r 0.551363925 _14_ RTR  --- 0 AODV 48 [0 ffffffff d 800] ------- [13:255 -1:255 28 0] [0x2 3 1 [10 0] [0 4]] (REQUEST)
r 0.551363925 _8_ RTR  --- 0 AODV 48 [0 ffffffff d 800] ------- [13:255 -1:255 28 0] [0x2 3 1 [10 0] [0 4]] (REQUEST)
r 0.552302458 _1_ RTR  --- 0 AODV 48 [0 ffffffff 8 800] ------- [8:255 -1:255 27 0] [0x2 4 2 [5 0] [0 6]] (REQUEST)
r 0.552302458 _9_ RTR  --- 0 AODV 48 [0 ffffffff 8 800] ------- [8:255 -1:255 27 0] [0x2 4 2 [5 0] [0 6]] (REQUEST)
r 0.552302516 _7_ RTR  --- 0 AODV 48 [0 ffffffff 8 800] ------- [8:255 -1:255 27 0] [0x2 4 2 [5 0] [0 6]] (REQUEST)
r 0.552302576 _13_ RTR  --- 0 AODV 48 [0 ffffffff 8 800] ------- [8:255 -1:255 27 0] [0x2 4 2 [5 0] [0 6]] (REQUEST)
s 0.552676153 _12_ RTR  --- 0 AODV 48 [0 ffffffff 4 800] ------- [12:255 -1:255 26 0] [0x2 5 1 [10 0] [0 4]] (REQUEST)
s 0.553398800 _2_ RTR  --- 0 AODV 48 [0 ffffffff 7 800] ------- [2:255 -1:255 26 0] [0x2 5 2 [5 0] [0 6]] (REQUEST)
r 0.553401027 _9_ RTR  --- 0 AODV 48 [0 ffffffff 7 800] ------- [7:255 -1:255 27 0] [0x2 4 1 [10 0] [0 4]] (REQUEST)
r 0.553401028 _4_ RTR  --- 0 AODV 48 [0 ffffffff 7 800] ------- [7:255 -1:255 27 0] [0x2 4 1 [10 0] [0 4]] (REQUEST)
r 0.553401043 _3_ RTR  --- 0 AODV 48 [0 ffffffff 7 800] ------- [7:255 -1:255 27 0] [0x2 4 1 [10 0] [0 4]] (REQUEST)
r 0.553401092 _1_ RTR  --- 0 AODV 48 [0 ffffffff 7 800] ------- [7:255 -1:255 27 0] [0x2 4 1 [10 0] [0 4]] (REQUEST)
r 0.553401106 _8_ RTR  --- 0 AODV 48 [0 ffffffff 7 800] ------- [7:255 -1:255 27 0] [0x2 4 1 [10 0] [0 4]] (REQUEST)
r 0.553401275 _2_ RTR  --- 0 AODV 48 [0 ffffffff 7 800] ------- [7:255 -1:255 27 0] [0x2 4 1 [10 0] [0 4]] (REQUEST)
r 0.553401276 _6_ RTR  --- 0 AODV 48 [0 ffffffff 7 800] ------- [7:255 -1:255 27 0] [0x2 4 1 [10 0] [0 4]] (REQUEST)
r 0.554319772 _3_ RTR  --- 0 AODV 48 [0 ffffffff 2 800] ------- [2:255 -1:255 26 0] [0x2 5 1 [10 0] [0 4]] (REQUEST)
r 0.554319812 _12_ RTR  --- 0 AODV 48 [0 ffffffff 2 800] ------- [2:255 -1:255 26 0] [0x2 5 1 [10 0] [0 4]] (REQUEST)
r 0.554319886 _4_ RTR  --- 0 AODV 48 [0 ffffffff 2 800] ------- [2:255 -1:255 26 0] [0x2 5 1 [10 0] [0 4]] (REQUEST)
r 0.554320034 _7_ RTR  --- 0 AODV 48 [0 ffffffff 2 800] ------- [2:255 -1:255 26 0] [0x2 5 1 [10 0] [0 4]] (REQUEST)
s 0.554384393 _11_ RTR  --- 0 AODV 48 [0 ffffffff 6 800] ------- [11:255 -1:255 27 0] [0x2 4 1 [10 0] [0 4]] (REQUEST)
s 0.554797404 _1_ RTR  --- 0 AODV 48 [0 ffffffff 7 800] ------- [1:255 -1:255 26 0] [0x2 5 2 [5 0] [0 6]] (REQUEST)
r 0.555238348 _2_ RTR  --- 0 AODV 48 [0 ffffffff c 800] ------- [12:255 -1:255 26 0] [0x2 5 1 [10 0] [0 4]] (REQUEST)
r 0.555238363 _4_ RTR  --- 0 AODV 48 [0 ffffffff c 800] ------- [12:255 -1:255 26 0] [0x2 5 1 [10 0] [0 4]] (REQUEST)
r 0.556521288 _2_ RTR  --- 0 AODV 48 [0 ffffffff 3 800] ------- [3:255 -1:255 26 0] [0x2 5 1 [10 0] [0 4]] (REQUEST)
r 0.556521318 _7_ RTR  --- 0 AODV 48 [0 ffffffff 3 800] ------- [3:255 -1:255 26 0] [0x2 5 1 [10 0] [0 4]] (REQUEST)
r 0.556521340 _1_ RTR  --- 0 AODV 48 [0 ffffffff 3 800] ------- [3:255 -1:255 26 0] [0x2 5 1 [10 0] [0 4]] (REQUEST)
r 0.557879888 _3_ RTR  --- 0 AODV 48 [0 ffffffff 1 800] ------- [1:255 -1:255 26 0] [0x2 5 2 [5 0] [0 6]] (REQUEST)
r 0.559182867 _3_ RTR  --- 0 AODV 48 [0 ffffffff 2 800] ------- [2:255 -1:255 26 0] [0x2 5 2 [5 0] [0 6]] (REQUEST)
r 0.559182906 _12_ RTR  --- 0 AODV 48 [0 ffffffff 2 800] ------- [2:255 -1:255 26 0] [0x2 5 2 [5 0] [0 6]] (REQUEST)
s 0.560757627 _1_ RTR  --- 0 AODV 48 [0 ffffffff 7 800] ------- [1:255 -1:255 26 0] [0x2 5 1 [10 0] [0 4]] (REQUEST)
r 0.561706176 _3_ RTR  --- 0 AODV 48 [0 ffffffff 1 800] ------- [1:255 -1:255 26 0] [0x2 5 1 [10 0] [0 4]] (REQUEST)
r 0.565457892 _10_ AGT  --- 6 tcp 1040 [13a a 0 800] ------- [0:2 10:2 30 10] [3 0] 1 0
s 0.565457892 _10_ AGT  --- 9 ack 40 [0 0 0 0] ------- [10:2 0:2 32 0] [3 0] 0 0
r 0.565457892 _10_ RTR  --- 9 ack 40 [0 0 0 0] ------- [10:2 0:2 32 0] [3 0] 0 0
s 0.565457892 _10_ RTR  --- 9 ack 40 [0 0 0 0] ------- [10:2 0:2 30 0] [3 0] 0 0
s 0.567896354 _12_ RTR  --- 0 AODV 48 [0 ffffffff 2 800] ------- [12:255 -1:255 25 0] [0x2 6 2 [5 0] [0 6]] (REQUEST)
r 0.569384890 _2_ RTR  --- 0 AODV 48 [0 ffffffff c 800] ------- [12:255 -1:255 25 0] [0x2 6 2 [5 0] [0 6]] (REQUEST)
r 0.575284388 _10_ AGT  --- 7 tcp 1040 [13a a 0 800] ------- [0:2 10:2 30 10] [4 0] 1 0
s 0.575284388 _10_ AGT  --- 10 ack 40 [0 0 0 0] ------- [10:2 0:2 32 0] [4 0] 0 0
r 0.575284388 _10_ RTR  --- 10 ack 40 [0 0 0 0] ------- [10:2 0:2 32 0] [4 0] 0 0
s 0.575284388 _10_ RTR  --- 10 ack 40 [0 0 0 0] ------- [10:2 0:2 30 0] [4 0] 0 0
r 0.577430263 _0_ AGT  --- 8 ack 40 [13a 0 a 800] ------- [10:2 0:2 30 0] [2 0] 1 0
s 0.577430263 _0_ AGT  --- 11 tcp 1040 [0 0 0 0] ------- [0:2 10:2 32 0] [5 0] 0 0
r 0.577430263 _0_ RTR  --- 11 tcp 1040 [0 0 0 0] ------- [0:2 10:2 32 0] [5 0] 0 0
s 0.577430263 _0_ AGT  --- 12 tcp 1040 [0 0 0 0] ------- [0:2 10:2 32 0] [6 0] 0 0
r 0.577430263 _0_ RTR  --- 12 tcp 1040 [0 0 0 0] ------- [0:2 10:2 32 0] [6 0] 0 0
s 0.577430263 _0_ RTR  --- 11 tcp 1040 [0 0 0 0] ------- [0:2 10:2 30 10] [5 0] 0 0
s 0.577430263 _0_ RTR  --- 12 tcp 1040 [0 0 0 0] ------- [0:2 10:2 30 10] [6 0] 0 0
r 0.579516016 _5_ AGT  --- 1 tcp 40 [13a 5 0 800] ------- [0:3 5:0 30 5] [0 0] 1 0
s 0.579516016 _5_ AGT  --- 13 ack 40 [0 0 0 0] ------- [5:0 0:3 32 0] [0 0] 0 0
r 0.579516016 _5_ RTR  --- 13 ack 40 [0 0 0 0] ------- [5:0 0:3 32 0] [0 0] 0 0
s 0.579516016 _5_ RTR  --- 13 ack 40 [0 0 0 0] ------- [5:0 0:3 30 0] [0 0] 0 0
r 0.581561769 _0_ AGT  --- 13 ack 40 [13a 0 5 800] ------- [5:0 0:3 30 0] [0 0] 1 0
s 0.581561769 _0_ AGT  --- 14 tcp 1040 [0 0 0 0] ------- [0:3 5:0 32 0] [1 0] 0 0
r 0.581561769 _0_ RTR  --- 14 tcp 1040 [0 0 0 0] ------- [0:3 5:0 32 0] [1 0] 0 0
s 0.581561769 _0_ AGT  --- 15 tcp 1040 [0 0 0 0] ------- [0:3 5:0 32 0] [2 0] 0 0
r 0.581561769 _0_ RTR  --- 15 tcp 1040 [0 0 0 0] ------- [0:3 5:0 32 0] [2 0] 0 0
s 0.581561769 _0_ RTR  --- 14 tcp 1040 [0 0 0 0] ------- [0:3 5:0 30 5] [1 0] 0 0
s 0.581561769 _0_ RTR  --- 15 tcp 1040 [0 0 0 0] ------- [0:3 5:0 30 5] [2 0] 0 0
r 0.591707645 _10_ AGT  --- 11 tcp 1040 [13a a 0 800] ------- [0:2 10:2 30 10] [5 0] 1 0
s 0.591707645 _10_ AGT  --- 16 ack 40 [0 0 0 0] ------- [10:2 0:2 32 0] [5 0] 0 0
r 0.591707645 _10_ RTR  --- 16 ack 40 [0 0 0 0] ------- [10:2 0:2 32 0] [5 0] 0 0
s 0.591707645 _10_ RTR  --- 16 ack 40 [0 0 0 0] ------- [10:2 0:2 30 0] [5 0] 0 0
r 0.593593524 _0_ AGT  --- 9 ack 40 [13a 0 a 800] ------- [10:2 0:2 30 0] [3 0] 1 0
s 0.593593524 _0_ AGT  --- 17 tcp 1040 [0 0 0 0] ------- [0:2 10:2 32 0] [7 0] 0 0
r 0.593593524 _0_ RTR  --- 17 tcp 1040 [0 0 0 0] ------- [0:2 10:2 32 0] [7 0] 0 0
s 0.593593524 _0_ AGT  --- 18 tcp 1040 [0 0 0 0] ------- [0:2 10:2 32 0] [8 0] 0 0
r 0.593593524 _0_ RTR  --- 18 tcp 1040 [0 0 0 0] ------- [0:2 10:2 32 0] [8 0] 0 0
s 0.593593524 _0_ RTR  --- 17 tcp 1040 [0 0 0 0] ------- [0:2 10:2 30 10] [7 0] 0 0
s 0.593593524 _0_ RTR  --- 18 tcp 1040 [0 0 0 0] ------- [0:2 10:2 30 10] [8 0] 0 0
r 0.603599403 _10_ AGT  --- 12 tcp 1040 [13a a 0 800] ------- [0:2 10:2 30 10] [6 0] 1 0
s 0.603599403 _10_ AGT  --- 19 ack 40 [0 0 0 0] ------- [10:2 0:2 32 0] [6 0] 0 0
r 0.603599403 _10_ RTR  --- 19 ack 40 [0 0 0 0] ------- [10:2 0:2 32 0] [6 0] 0 0
s 0.603599403 _10_ RTR  --- 19 ack 40 [0 0 0 0] ------- [10:2 0:2 30 0] [6 0] 0 0
r 0.613525783 _5_ AGT  --- 14 tcp 1040 [13a 5 0 800] ------- [0:3 5:0 30 5] [1 0] 1 0
s 0.613525783 _5_ AGT  --- 20 ack 40 [0 0 0 0] ------- [5:0 0:3 32 0] [1 0] 0 0
r 0.613525783 _5_ RTR  --- 20 ack 40 [0 0 0 0] ------- [5:0 0:3 32 0] [1 0] 0 0
s 0.613525783 _5_ RTR  --- 20 ack 40 [0 0 0 0] ------- [5:0 0:3 30 0] [1 0] 0 0
r 0.623352118 _5_ AGT  --- 15 tcp 1040 [13a 5 0 800] ------- [0:3 5:0 30 5] [2 0] 1 0
s 0.623352118 _5_ AGT  --- 21 ack 40 [0 0 0 0] ------- [5:0 0:3 32 0] [2 0] 0 0
r 0.623352118 _5_ RTR  --- 21 ack 40 [0 0 0 0] ------- [5:0 0:3 32 0] [2 0] 0 0
s 0.623352118 _5_ RTR  --- 21 ack 40 [0 0 0 0] ------- [5:0 0:3 30 0] [2 0] 0 0
r 0.625357870 _0_ AGT  --- 20 ack 40 [13a 0 5 800] ------- [5:0 0:3 30 0] [1 0] 1 0
s 0.625357870 _0_ AGT  --- 22 tcp 1040 [0 0 0 0] ------- [0:3 5:0 32 0] [3 0] 0 0
r 0.625357870 _0_ RTR  --- 22 tcp 1040 [0 0 0 0] ------- [0:3 5:0 32 0] [3 0] 0 0
s 0.625357870 _0_ AGT  --- 23 tcp 1040 [0 0 0 0] ------- [0:3 5:0 32 0] [4 0] 0 0
r 0.625357870 _0_ RTR  --- 23 tcp 1040 [0 0 0 0] ------- [0:3 5:0 32 0] [4 0] 0 0
s 0.625357870 _0_ RTR  --- 22 tcp 1040 [0 0 0 0] ------- [0:3 5:0 30 5] [3 0] 0 0
s 0.625357870 _0_ RTR  --- 23 tcp 1040 [0 0 0 0] ------- [0:3 5:0 30 5] [4 0] 0 0
r 0.635403757 _10_ AGT  --- 17 tcp 1040 [13a a 0 800] ------- [0:2 10:2 30 10] [7 0] 1 0
s 0.635403757 _10_ AGT  --- 24 ack 40 [0 0 0 0] ------- [10:2 0:2 32 0] [7 0] 0 0
r 0.635403757 _10_ RTR  --- 24 ack 40 [0 0 0 0] ------- [10:2 0:2 32 0] [7 0] 0 0
s 0.635403757 _10_ RTR  --- 24 ack 40 [0 0 0 0] ------- [10:2 0:2 30 0] [7 0] 0 0
r 0.637309646 _0_ AGT  --- 10 ack 40 [13a 0 a 800] ------- [10:2 0:2 30 0] [4 0] 1 0
s 0.637309646 _0_ AGT  --- 25 tcp 1040 [0 0 0 0] ------- [0:2 10:2 32 0] [9 0] 0 0
r 0.637309646 _0_ RTR  --- 25 tcp 1040 [0 0 0 0] ------- [0:2 10:2 32 0] [9 0] 0 0
s 0.637309646 _0_ AGT  --- 26 tcp 1040 [0 0 0 0] ------- [0:2 10:2 32 0] [10 0] 0 0
r 0.637309646 _0_ RTR  --- 26 tcp 1040 [0 0 0 0] ------- [0:2 10:2 32 0] [10 0] 0 0
s 0.637309646 _0_ RTR  --- 25 tcp 1040 [0 0 0 0] ------- [0:2 10:2 30 10] [9 0] 0 0
s 0.637309646 _0_ RTR  --- 26 tcp 1040 [0 0 0 0] ------- [0:2 10:2 30 10] [10 0] 0 0
r 0.639136166 _0_ AGT  --- 16 ack 40 [13a 0 a 800] ------- [10:2 0:2 30 0] [5 0] 1 0
s 0.639136166 _0_ AGT  --- 27 tcp 1040 [0 0 0 0] ------- [0:2 10:2 32 0] [11 0] 0 0
r 0.639136166 _0_ RTR  --- 27 tcp 1040 [0 0 0 0] ------- [0:2 10:2 32 0] [11 0] 0 0
s 0.639136166 _0_ AGT  --- 28 tcp 1040 [0 0 0 0] ------- [0:2 10:2 32 0] [12 0] 0 0
r 0.639136166 _0_ RTR  --- 28 tcp 1040 [0 0 0 0] ------- [0:2 10:2 32 0] [12 0] 0 0
s 0.639136166 _0_ RTR  --- 27 tcp 1040 [0 0 0 0] ------- [0:2 10:2 30 10] [11 0] 0 0
s 0.639136166 _0_ RTR  --- 28 tcp 1040 [0 0 0 0] ------- [0:2 10:2 30 10] [12 0] 0 0
r 0.641082686 _0_ AGT  --- 19 ack 40 [13a 0 a 800] ------- [10:2 0:2 30 0] [6 0] 1 0
s 0.641082686 _0_ AGT  --- 29 tcp 1040 [0 0 0 0] ------- [0:2 10:2 32 0] [13 0] 0 0
r 0.641082686 _0_ RTR  --- 29 tcp 1040 [0 0 0 0] ------- [0:2 10:2 32 0] [13 0] 0 0
s 0.641082686 _0_ AGT  --- 30 tcp 1040 [0 0 0 0] ------- [0:2 10:2 32 0] [14 0] 0 0
r 0.641082686 _0_ RTR  --- 30 tcp 1040 [0 0 0 0] ------- [0:2 10:2 32 0] [14 0] 0 0
s 0.641082686 _0_ RTR  --- 29 tcp 1040 [0 0 0 0] ------- [0:2 10:2 30 10] [13 0] 0 0
s 0.641082686 _0_ RTR  --- 30 tcp 1040 [0 0 0 0] ------- [0:2 10:2 30 10] [14 0] 0 0
r 0.650948576 _10_ AGT  --- 18 tcp 1040 [13a a 0 800] ------- [0:2 10:2 30 10] [8 0] 1 0
s 0.650948576 _10_ AGT  --- 31 ack 40 [0 0 0 0] ------- [10:2 0:2 32 0] [8 0] 0 0
r 0.650948576 _10_ RTR  --- 31 ack 40 [0 0 0 0] ------- [10:2 0:2 32 0] [8 0] 0 0
s 0.650948576 _10_ RTR  --- 31 ack 40 [0 0 0 0] ------- [10:2 0:2 30 0] [8 0] 0 0
r 0.652251442 _6_ RTR  --- 0 AODV 48 [0 ffffffff b 800] ------- [11:255 -1:255 27 0] [0x2 4 1 [10 0] [0 4]] (REQUEST)
r 0.652251679 _10_ RTR  --- 0 AODV 48 [0 ffffffff b 800] ------- [11:255 -1:255 27 0] [0x2 4 1 [10 0] [0 4]] (REQUEST)
r 0.652251799 _4_ RTR  --- 0 AODV 48 [0 ffffffff b 800] ------- [11:255 -1:255 27 0] [0x2 4 1 [10 0] [0 4]] (REQUEST)
r 0.653190268 _6_ RTR  --- 0 AODV 48 [0 ffffffff 4 800] ------- [4:255 -1:255 27 0] [0x2 4 2 [5 0] [0 6]] (REQUEST)
r 0.653190303 _7_ RTR  --- 0 AODV 48 [0 ffffffff 4 800] ------- [4:255 -1:255 27 0] [0x2 4 2 [5 0] [0 6]] (REQUEST)
r 0.653190359 _12_ RTR  --- 0 AODV 48 [0 ffffffff 4 800] ------- [4:255 -1:255 27 0] [0x2 4 2 [5 0] [0 6]] (REQUEST)
r 0.653190411 _2_ RTR  --- 0 AODV 48 [0 ffffffff 4 800] ------- [4:255 -1:255 27 0] [0x2 4 2 [5 0] [0 6]] (REQUEST)
r 0.653190506 _11_ RTR  --- 0 AODV 48 [0 ffffffff 4 800] ------- [4:255 -1:255 27 0] [0x2 4 2 [5 0] [0 6]] (REQUEST)
r 0.653190554 _9_ RTR  --- 0 AODV 48 [0 ffffffff 4 800] ------- [4:255 -1:255 27 0] [0x2 4 2 [5 0] [0 6]] (REQUEST)
r 0.653190554 _3_ RTR  --- 0 AODV 48 [0 ffffffff 4 800] ------- [4:255 -1:255 27 0] [0x2 4 2 [5 0] [0 6]] (REQUEST)
r 0.654473389 _9_ RTR  --- 0 AODV 48 [0 ffffffff 8 800] ------- [8:255 -1:255 27 0] [0x2 4 1 [10 0] [0 4]] (REQUEST)
r 0.654473392 _1_ RTR  --- 0 AODV 48 [0 ffffffff 8 800] ------- [8:255 -1:255 27 0] [0x2 4 1 [10 0] [0 4]] (REQUEST)
r 0.654473452 _7_ RTR  --- 0 AODV 48 [0 ffffffff 8 800] ------- [8:255 -1:255 27 0] [0x2 4 1 [10 0] [0 4]] (REQUEST)
r 0.654473511 _13_ RTR  --- 0 AODV 48 [0 ffffffff 8 800] ------- [8:255 -1:255 27 0] [0x2 4 1 [10 0] [0 4]] (REQUEST)
r 0.664410051 _5_ AGT  --- 22 tcp 1040 [13a 5 0 800] ------- [0:3 5:0 30 5] [3 0] 1 0
s 0.664410051 _5_ AGT  --- 32 ack 40 [0 0 0 0] ------- [5:0 0:3 32 0] [3 0] 0 0
r 0.664410051 _5_ RTR  --- 32 ack 40 [0 0 0 0] ------- [5:0 0:3 32 0] [3 0] 0 0
s 0.664410051 _5_ RTR  --- 32 ack 40 [0 0 0 0] ------- [5:0 0:3 30 0] [3 0] 0 0
r 0.666395801 _0_ AGT  --- 21 ack 40 [13a 0 5 800] ------- [5:0 0:3 30 0] [2 0] 1 0
s 0.666395801 _0_ AGT  --- 33 tcp 1040 [0 0 0 0] ------- [0:3 5:0 32 0] [5 0] 0 0
r 0.666395801 _0_ RTR  --- 33 tcp 1040 [0 0 0 0] ------- [0:3 5:0 32 0] [5 0] 0 0
s 0.666395801 _0_ AGT  --- 34 tcp 1040 [0 0 0 0] ------- [0:3 5:0 32 0] [6 0] 0 0
r 0.666395801 _0_ RTR  --- 34 tcp 1040 [0 0 0 0] ------- [0:3 5:0 32 0] [6 0] 0 0
s 0.666395801 _0_ RTR  --- 33 tcp 1040 [0 0 0 0] ------- [0:3 5:0 30 5] [5 0] 0 0
s 0.666395801 _0_ RTR  --- 34 tcp 1040 [0 0 0 0] ------- [0:3 5:0 30 5] [6 0] 0 0
r 0.668392196 _0_ AGT  --- 24 ack 40 [13a 0 a 800] ------- [10:2 0:2 30 0] [7 0] 1 0
s 0.668392196 _0_ AGT  --- 35 tcp 1040 [0 0 0 0] ------- [0:2 10:2 32 0] [15 0] 0 0
r 0.668392196 _0_ RTR  --- 35 tcp 1040 [0 0 0 0] ------- [0:2 10:2 32 0] [15 0] 0 0
s 0.668392196 _0_ AGT  --- 36 tcp 1040 [0 0 0 0] ------- [0:2 10:2 32 0] [16 0] 0 0
r 0.668392196 _0_ RTR  --- 36 tcp 1040 [0 0 0 0] ------- [0:2 10:2 32 0] [16 0] 0 0
s 0.668392196 _0_ RTR  --- 35 tcp 1040 [0 0 0 0] ------- [0:2 10:2 30 10] [15 0] 0 0
s 0.668392196 _0_ RTR  --- 36 tcp 1040 [0 0 0 0] ------- [0:2 10:2 30 10] [16 0] 0 0
r 0.670258725 _0_ AGT  --- 31 ack 40 [13a 0 a 800] ------- [10:2 0:2 30 0] [8 0] 1 0
s 0.670258725 _0_ AGT  --- 37 tcp 1040 [0 0 0 0] ------- [0:2 10:2 32 0] [17 0] 0 0
r 0.670258725 _0_ RTR  --- 37 tcp 1040 [0 0 0 0] ------- [0:2 10:2 32 0] [17 0] 0 0
s 0.670258725 _0_ AGT  --- 38 tcp 1040 [0 0 0 0] ------- [0:2 10:2 32 0] [18 0] 0 0
r 0.670258725 _0_ RTR  --- 38 tcp 1040 [0 0 0 0] ------- [0:2 10:2 32 0] [18 0] 0 0
s 0.670258725 _0_ RTR  --- 37 tcp 1040 [0 0 0 0] ------- [0:2 10:2 30 10] [17 0] 0 0
s 0.670258725 _0_ RTR  --- 38 tcp 1040 [0 0 0 0] ------- [0:2 10:2 30 10] [18 0] 0 0
r 0.680284475 _5_ AGT  --- 23 tcp 1040 [13a 5 0 800] ------- [0:3 5:0 30 5] [4 0] 1 0
s 0.680284475 _5_ AGT  --- 39 ack 40 [0 0 0 0] ------- [5:0 0:3 32 0] [4 0] 0 0
r 0.680284475 _5_ RTR  --- 39 ack 40 [0 0 0 0] ------- [5:0 0:3 32 0] [4 0] 0 0
s 0.680284475 _5_ RTR  --- 39 ack 40 [0 0 0 0] ------- [5:0 0:3 30 0] [4 0] 0 0
r 0.682350225 _0_ AGT  --- 32 ack 40 [13a 0 5 800] ------- [5:0 0:3 30 0] [3 0] 1 0
s 0.682350225 _0_ AGT  --- 40 tcp 1040 [0 0 0 0] ------- [0:3 5:0 32 0] [7 0] 0 0
r 0.682350225 _0_ RTR  --- 40 tcp 1040 [0 0 0 0] ------- [0:3 5:0 32 0] [7 0] 0 0
s 0.682350225 _0_ AGT  --- 41 tcp 1040 [0 0 0 0] ------- [0:3 5:0 32 0] [8 0] 0 0