n -t * -s 0  -x -19 -y 383 -Z 0 -z 30  -v circle -c black
n -t * -s 1  -x 537 -y 236 -Z 0 -z 30  -v circle -c black
n -t * -s 2  -x 587 -y 540 -Z 0 -z 30  -v circle -c black
n -t * -s 3  -x 589 -y 391 -Z 0 -z 30  -v circle -c black
n -t * -s 4  -x 405 -y 538 -Z 0 -z 30  -v circle -c black
n -t * -s 5  -x 57 -y 222 -Z 0 -z 30  -v circle -c black
n -t * -s 6  -x 254 -y 528 -Z 0 -z 30  -v circle -c black
n -t * -s 7  -x 432 -y 373 -Z 0 -z 30  -v circle -c black
n -t * -s 8  -x 378 -y 204 -Z 0 -z 30  -v circle -c black
n -t * -s 9  -x 285 -y 346 -Z 0 -z 30  -v circle -c black
n -t * -s 10  -x 55 -y 540 -Z 0 -z 30  -v circle -c black
n -t * -s 11  -x 293 -y 658 -Z 0 -z 30  -v circle -c black
n -t * -s 12  -x 479 -y 671 -Z 0 -z 30  -v circle -c black
n -t * -s 13  -x 182 -y 172 -Z 0 -z 30  -v circle -c black
n -t * -s 14  -x 153 -y 386 -Z 0 -z 30  -v circle -c black
V -t * -v 1.0a5 -a 0
W -t * -x 800 -y 800
A -t * -n 1 -p 0 -o 0x7fffffff -c 30 -a 1
A -t * -h 1 -m 1073741823 -s 0
c -t * -i 4 -n brown
c -t * -i 0 -n darkgreen
c -t * -i 5 -n purple
c -t * -i 1 -n blue
c -t * -i 6 -n gray
c -t * -i 2 -n green
c -t * -i 7 -n deepskyblue
c -t * -i 3 -n red
n -t 0.000000 -s 1 -x 537.000000 -y 236.000000 -U 0.000000 -V 25.000000 -T 0.520000
n -t 0.000000 -s 2 -x 587.000000 -y 540.000000 -U 1.189129 -V 24.971703 -T 0.840952
n -t 0.000000 -s 3 -x 589.000000 -y 391.000000 -U 1.386750 -V 24.961509 -T 0.721110
n -t 0.000000 -s 4 -x 405.000000 -y 538.000000 -U 0.000000 -V 0.000000 -T 0.000000
n -t 0.000000 -s 5 -x 57.000000 -y 222.000000 -U 19.601146 -V 15.517574 -T 1.224418
n -t 0.000000 -s 6 -x 254.000000 -y 528.000000 -U 15.764816 -V 19.402850 -T 0.824621
n -t 0.000000 -s 7 -x 432.000000 -y 373.000000 -U 1.386750 -V 24.961509 -T 0.721110
n -t 0.000000 -s 8 -x 378.000000 -y 204.000000 -U 4.109975 -V 24.659848 -T 0.729932
n -t 0.000000 -s 9 -x 285.000000 -y 346.000000 -U 0.000000 -V 0.000000 -T 0.000000
n -t 0.000000 -s 10 -x 55.000000 -y 540.000000 -U 4.109975 -V 24.659848 -T 1.459863
n -t 0.000000 -s 11 -x 293.000000 -y 658.000000 -U -22.639914 -V -10.603504 -T 3.489413
n -t 0.000000 -s 12 -x 479.000000 -y 671.000000 -U 17.677670 -V 17.677670 -T 0.905097
n -t 0.000000 -s 13 -x 182.000000 -y 172.000000 -U 10.527783 -V 22.675224 -T 1.234828
n -t 0.000000 -s 14 -x 153.000000 -y 386.000000 -U -20.000000 -V -15.000000 -T 0.600000
n -t 0 -s 0 -S DLABEL -l "SOURCE" -L ""
n -t 0 -s 7 -S DLABEL -l "DESTINATION" -L ""
n -t 0 -s 0 -S COLOR -c deepskyblue -o deepskyblue -i deepskyblue -I deepskyblue
n -t 0 -s 7 -S COLOR -c deepskyblue -o deepskyblue -i deepskyblue -I deepskyblue
m -t 0 -s 0 -n . -c blue -h circle
m -t 0 -s 7 -n . -c blue -h circle
v -t 0 -e sim_annotation 0 1 Network Deployed
v -t 0.1 -e sim_annotation 0.1 2 NODE0 became SOURCE NODE 
v -t 0.2 -e sim_annotation 0.2 3 NODE7 became DESTINATION NODE 
n -t 0.5 -s 0 -S DLABEL -l "RREQ" -L "SOURCE"
+ -t 0.500000000 -s 0 -d -1 -p tcp -e 40 -c 2 -a 0 -i 0 -k AGT 
- -t 0.500000000 -s 0 -d -1 -p tcp -e 40 -c 2 -a 0 -i 0 -k AGT
h -t 0.500000000 -s 0 -d -1 -p tcp -e 40 -c 2 -a 0 -i 0 -k AGT
+ -t 0.500000000 -s 0 -d -1 -p tcp -e 40 -c 2 -a 0 -i 1 -k AGT 
- -t 0.500000000 -s 0 -d -1 -p tcp -e 40 -c 2 -a 0 -i 1 -k AGT
h -t 0.500000000 -s 0 -d -1 -p tcp -e 40 -c 2 -a 0 -i 1 -k AGT
+ -t 0.500000000 -s 0 -d -1 -p AODV -e 48 -c 2 -a 0 -i 0 -k RTR 
- -t 0.500000000 -s 0 -d -1 -p AODV -e 48 -c 2 -a 0 -i 0 -k RTR
h -t 0.500000000 -s 0 -d -1 -p AODV -e 48 -c 2 -a 0 -i 0 -k RTR
+ -t 0.500000000 -s 0 -d -1 -p AODV -e 48 -c 2 -a 0 -i 0 -k RTR 
- -t 0.500000000 -s 0 -d -1 -p AODV -e 48 -c 2 -a 0 -i 0 -k RTR
h -t 0.500000000 -s 0 -d -1 -p AODV -e 48 -c 2 -a 0 -i 0 -k RTR
r -t 0.501168540 -s 14 -d -1 -p AODV -e 48 -c 2 -a 0 -i 0 -k RTR
r -t 0.501168585 -s 5 -d -1 -p AODV -e 48 -c 2 -a 0 -i 0 -k RTR
r -t 0.501168619 -s 10 -d -1 -p AODV -e 48 -c 2 -a 0 -i 0 -k RTR
+ -t 0.501168619 -s 10 -d 0 -p AODV -e 44 -c 2 -a 0 -i 0 -k RTR 
- -t 0.501168619 -s 10 -d 0 -p AODV -e 44 -c 2 -a 0 -i 0 -k RTR
h -t 0.501168619 -s 10 -d 0 -p AODV -e 44 -c 2 -a 0 -i 0 -k RTR
r -t 0.502086540 -s 14 -d -1 -p AODV -e 48 -c 2 -a 0 -i 0 -k RTR
r -t 0.502086585 -s 5 -d -1 -p AODV -e 48 -c 2 -a 0 -i 0 -k RTR
+ -t 0.502086585 -s 5 -d 0 -p AODV -e 44 -c 2 -a 0 -i 0 -k RTR 
- -t 0.502086585 -s 5 -d 0 -p AODV -e 44 -c 2 -a 0 -i 0 -k RTR
h -t 0.502086585 -s 5 -d 0 -p AODV -e 44 -c 2 -a 0 -i 0 -k RTR
r -t 0.502086619 -s 10 -d -1 -p AODV -e 48 -c 2 -a 0 -i 0 -k RTR
+ -t 0.504258213 -s 10 -d -1 -p AODV -e 48 -c 2 -a 0 -i 0 -k RTR 
- -t 0.504258213 -s 10 -d -1 -p AODV -e 48 -c 2 -a 0 -i 0 -k RTR
h -t 0.504258213 -s 10 -d -1 -p AODV -e 48 -c 2 -a 0 -i 0 -k RTR
+ -t 0.505829745 -s 5 -d -1 -p AODV -e 48 -c 2 -a 0 -i 0 -k RTR 
- -t 0.505829745 -s 5 -d -1 -p AODV -e 48 -c 2 -a 0 -i 0 -k RTR
h -t 0.505829745 -s 5 -d -1 -p AODV -e 48 -c 2 -a 0 -i 0 -k RTR
r -t 0.506333714 -s 0 -d -1 -p AODV -e 48 -c 2 -a 0 -i 0 -k RTR
r -t 0.506333742 -s 14 -d -1 -p AODV -e 48 -c 2 -a 0 -i 0 -k RTR
r -t 0.506333780 -s 6 -d -1 -p AODV -e 48 -c 2 -a 0 -i 0 -k RTR
r -t 0.506333914 -s 11 -d -1 -p AODV -e 48 -c 2 -a 0 -i 0 -k RTR
+ -t 0.506355028 -s 14 -d -1 -p AODV -e 48 -c 2 -a 0 -i 0 -k RTR 
- -t 0.506355028 -s 14 -d -1 -p AODV -e 48 -c 2 -a 0 -i 0 -k RTR
h -t 0.506355028 -s 14 -d -1 -p AODV -e 48 -c 2 -a 0 -i 0 -k RTR
+ -t 0.507425899 -s 11 -d -1 -p AODV -e 48 -c 2 -a 0 -i 0 -k RTR 
- -t 0.507425899 -s 11 -d -1 -p AODV -e 48 -c 2 -a 0 -i 0 -k RTR
h -t 0.507425899 -s 11 -d -1 -p AODV -e 48 -c 2 -a 0 -i 0 -k RTR
+ -t 0.508016953 -s 0 -d 10 -p tcp -e 40 -c 2 -a 0 -i 0 -k RTR 
- -t 0.508016953 -s 0 -d 10 -p tcp -e 40 -c 2 -a 0 -i 0 -k RTR
h -t 0.508016953 -s 0 -d 10 -p tcp -e 40 -c 2 -a 0 -i 0 -k RTR
r -t 0.509369979 -s 9 -d -1 -p AODV -e 48 -c 2 -a 0 -i 0 -k RTR
r -t 0.509370032 -s 0 -d -1 -p AODV -e 48 -c 2 -a 0 -i 0 -k RTR
r -t 0.509370048 -s 5 -d -1 -p AODV -e 48 -c 2 -a 0 -i 0 -k RTR
r -t 0.509370140 -s 10 -d -1 -p AODV -e 48 -c 2 -a 0 -i 0 -k RTR
r -t 0.509370156 -s 6 -d -1 -p AODV -e 48 -c 2 -a 0 -i 0 -k RTR
r -t 0.509370159 -s 13 -d -1 -p AODV -e 48 -c 2 -a 0 -i 0 -k RTR
+ -t 0.509478242 -s 13 -d -1 -p AODV -e 48 -c 2 -a 0 -i 0 -k RTR 
- -t 0.509478242 -s 13 -d -1 -p AODV -e 48 -c 2 -a 0 -i 0 -k RTR
h -t 0.509478242 -s 13 -d -1 -p AODV -e 48 -c 2 -a 0 -i 0 -k RTR
+ -t 0.509954183 -s 6 -d -1 -p AODV -e 48 -c 2 -a 0 -i 0 -k RTR 
- -t 0.509954183 -s 6 -d -1 -p AODV -e 48 -c 2 -a 0 -i 0 -k RTR
h -t 0.509954183 -s 6 -d -1 -p AODV -e 48 -c 2 -a 0 -i 0 -k RTR
+ -t 0.510388970 -s 6 -d -1 -p AODV -e 48 -c 2 -a 0 -i 0 -k RTR 
- -t 0.510388970 -s 6 -d -1 -p AODV -e 48 -c 2 -a 0 -i 0 -k RTR
h -t 0.510388970 -s 6 -d -1 -p AODV -e 48 -c 2 -a 0 -i 0 -k RTR
+ -t 0.510484792 -s 14 -d -1 -p AODV -e 48 -c 2 -a 0 -i 0 -k RTR 
- -t 0.510484792 -s 14 -d -1 -p AODV -e 48 -c 2 -a 0 -i 0 -k RTR
h -t 0.510484792 -s 14 -d -1 -p AODV -e 48 -c 2 -a 0 -i 0 -k RTR
+ -t 0.510490292 -s 9 -d -1 -p AODV -e 48 -c 2 -a 0 -i 0 -k RTR 
- -t 0.510490292 -s 9 -d -1 -p AODV -e 48 -c 2 -a 0 -i 0 -k RTR
h -t 0.510490292 -s 9 -d -1 -p AODV -e 48 -c 2 -a 0 -i 0 -k RTR
r -t 0.512000493 -s 10 -d 10 -p tcp -e 40 -c 2 -a 0 -i 0 -k AGT
+ -t 0.512000493 -s 10 -d -1 -p ack -e 40 -c 2 -a 0 -i 2 -k AGT 
- -t 0.512000493 -s 10 -d -1 -p ack -e 40 -c 2 -a 0 -i 2 -k AGT
h -t 0.512000493 -s 10 -d -1 -p ack -e 40 -c 2 -a 0 -i 2 -k AGT
+ -t 0.512000493 -s 10 -d 0 -p ack -e 40 -c 2 -a 0 -i 2 -k RTR 
- -t 0.512000493 -s 10 -d 0 -p ack -e 40 -c 2 -a 0 -i 2 -k RTR
h -t 0.512000493 -s 10 -d 0 -p ack -e 40 -c 2 -a 0 -i 2 -k RTR
r -t 0.514963298 -s 13 -d -1 -p AODV -e 48 -c 2 -a 0 -i 0 -k RTR
r -t 0.514963423 -s 14 -d -1 -p AODV -e 48 -c 2 -a 0 -i 0 -k RTR
r -t 0.514963453 -s 0 -d -1 -p AODV -e 48 -c 2 -a 0 -i 0 -k RTR
r -t 0.514963691 -s 9 -d -1 -p AODV -e 48 -c 2 -a 0 -i 0 -k RTR
r -t 0.515941728 -s 5 -d -1 -p AODV -e 48 -c 2 -a 0 -i 0 -k RTR
r -t 0.515941929 -s 9 -d -1 -p AODV -e 48 -c 2 -a 0 -i 0 -k RTR
r -t 0.515941950 -s 8 -d -1 -p AODV -e 48 -c 2 -a 0 -i 0 -k RTR
r -t 0.515941963 -s 14 -d -1 -p AODV -e 48 -c 2 -a 0 -i 0 -k RTR
r -t 0.516940450 -s 9 -d -1 -p AODV -e 48 -c 2 -a 0 -i 0 -k RTR
r -t 0.516940503 -s 0 -d -1 -p AODV -e 48 -c 2 -a 0 -i 0 -k RTR
r -t 0.516940518 -s 5 -d -1 -p AODV -e 48 -c 2 -a 0 -i 0 -k RTR
r -t 0.516940611 -s 10 -d -1 -p AODV -e 48 -c 2 -a 0 -i 0 -k RTR
r -t 0.516940628 -s 6 -d -1 -p AODV -e 48 -c 2 -a 0 -i 0 -k RTR
r -t 0.516940629 -s 13 -d -1 -p AODV -e 48 -c 2 -a 0 -i 0 -k RTR
r -t 0.517938936 -s 14 -d -1 -p AODV -e 48 -c 2 -a 0 -i 0 -k RTR
r -t 0.517938960 -s 7 -d -1 -p AODV -e 48 -c 2 -a 0 -i 0 -k RTR
r -t 0.517938985 -s 8 -d -1 -p AODV -e 48 -c 2 -a 0 -i 0 -k RTR
r -t 0.517939081 -s 13 -d -1 -p AODV -e 48 -c 2 -a 0 -i 0 -k RTR
r -t 0.517939094 -s 6 -d -1 -p AODV -e 48 -c 2 -a 0 -i 0 -k RTR
r -t 0.517939205 -s 4 -d -1 -p AODV -e 48 -c 2 -a 0 -i 0 -k RTR
r -t 0.517939273 -s 5 -d -1 -p AODV -e 48 -c 2 -a 0 -i 0 -k RTR
+ -t 0.518802771 -s 13 -d -1 -p AODV -e 48 -c 2 -a 0 -i 0 -k RTR 
- -t 0.518802771 -s 13 -d -1 -p AODV -e 48 -c 2 -a 0 -i 0 -k RTR
h -t 0.518802771 -s 13 -d -1 -p AODV -e 48 -c 2 -a 0 -i 0 -k RTR
+ -t 0.519523028 -s 0 -d 5 -p tcp -e 40 -c 2 -a 0 -i 1 -k RTR 
- -t 0.519523028 -s 0 -d 5 -p tcp -e 40 -c 2 -a 0 -i 1 -k RTR
h -t 0.519523028 -s 0 -d 5 -p tcp -e 40 -c 2 -a 0 -i 1 -k RTR
+ -t 0.520198822 -s 8 -d -1 -p AODV -e 48 -c 2 -a 0 -i 0 -k RTR 
- -t 0.520198822 -s 8 -d -1 -p AODV -e 48 -c 2 -a 0 -i 0 -k RTR
h -t 0.520198822 -s 8 -d -1 -p AODV -e 48 -c 2 -a 0 -i 0 -k RTR
+ -t 0.520213620 -s 9 -d -1 -p AODV -e 48 -c 2 -a 0 -i 0 -k RTR 
- -t 0.520213620 -s 9 -d -1 -p AODV -e 48 -c 2 -a 0 -i 0 -k RTR
h -t 0.520213620 -s 9 -d -1 -p AODV -e 48 -c 2 -a 0 -i 0 -k RTR
r -t 0.521388784 -s 5 -d 5 -p tcp -e 40 -c 2 -a 0 -i 1 -k AGT
+ -t 0.521388784 -s 5 -d -1 -p ack -e 40 -c 2 -a 0 -i 3 -k AGT 
- -t 0.521388784 -s 5 -d -1 -p ack -e 40 -c 2 -a 0 -i 3 -k AGT
h -t 0.521388784 -s 5 -d -1 -p ack -e 40 -c 2 -a 0 -i 3 -k AGT
+ -t 0.521388784 -s 5 -d 0 -p ack -e 40 -c 2 -a 0 -i 3 -k RTR 
- -t 0.521388784 -s 5 -d 0 -p ack -e 40 -c 2 -a 0 -i 3 -k RTR
h -t 0.521388784 -s 5 -d 0 -p ack -e 40 -c 2 -a 0 -i 3 -k RTR
r -t 0.522671584 -s 5 -d -1 -p AODV -e 48 -c 2 -a 0 -i 0 -k RTR
r -t 0.522671785 -s 9 -d -1 -p AODV -e 48 -c 2 -a 0 -i 0 -k RTR
r -t 0.522671806 -s 8 -d -1 -p AODV -e 48 -c 2 -a 0 -i 0 -k RTR
r -t 0.522671820 -s 14 -d -1 -p AODV -e 48 -c 2 -a 0 -i 0 -k RTR
r -t 0.523750272 -s 14 -d -1 -p AODV -e 48 -c 2 -a 0 -i 0 -k RTR
r -t 0.523750296 -s 7 -d -1 -p AODV -e 48 -c 2 -a 0 -i 0 -k RTR
r -t 0.523750320 -s 8 -d -1 -p AODV -e 48 -c 2 -a 0 -i 0 -k RTR
r -t 0.523750416 -s 13 -d -1 -p AODV -e 48 -c 2 -a 0 -i 0 -k RTR
r -t 0.523750430 -s 6 -d -1 -p AODV -e 48 -c 2 -a 0 -i 0 -k RTR
r -t 0.523750540 -s 4 -d -1 -p AODV -e 48 -c 2 -a 0 -i 0 -k RTR
r -t 0.523750608 -s 5 -d -1 -p AODV -e 48 -c 2 -a 0 -i 0 -k RTR
r -t 0.524708854 -s 1 -d -1 -p AODV -e 48 -c 2 -a 0 -i 0 -k RTR
r -t 0.524708855 -s 9 -d -1 -p AODV -e 48 -c 2 -a 0 -i 0 -k RTR
r -t 0.524708911 -s 7 -d -1 -p AODV -e 48 -c 2 -a 0 -i 0 -k RTR
r -t 0.524708972 -s 13 -d -1 -p AODV -e 48 -c 2 -a 0 -i 0 -k RTR
+ -t 0.525666162 -s 4 -d -1 -p AODV -e 48 -c 2 -a 0 -i 0 -k RTR 
- -t 0.525666162 -s 4 -d -1 -p AODV -e 48 -c 2 -a 0 -i 0 -k RTR
h -t 0.525666162 -s 4 -d -1 -p AODV -e 48 -c 2 -a 0 -i 0 -k RTR
r -t 0.526072195 -s 6 -d -1 -p AODV -e 48 -c 2 -a 0 -i 0 -k RTR
r -t 0.526072371 -s 4 -d -1 -p AODV -e 48 -c 2 -a 0 -i 0 -k RTR
r -t 0.526072506 -s 12 -d -1 -p AODV -e 48 -c 2 -a 0 -i 0 -k RTR
r -t 0.526072626 -s 10 -d -1 -p AODV -e 48 -c 2 -a 0 -i 0 -k RTR
r -t 0.527170581 -s 11 -d -1 -p AODV -e 48 -c 2 -a 0 -i 0 -k RTR
r -t 0.527170671 -s 4 -d -1 -p AODV -e 48 -c 2 -a 0 -i 0 -k RTR
r -t 0.527170840 -s 9 -d -1 -p AODV -e 48 -c 2 -a 0 -i 0 -k RTR
r -t 0.527170861 -s 14 -d -1 -p AODV -e 48 -c 2 -a 0 -i 0 -k RTR
r -t 0.527170880 -s 10 -d -1 -p AODV -e 48 -c 2 -a 0 -i 0 -k RTR
r -t 0.527170956 -s 7 -d -1 -p AODV -e 48 -c 2 -a 0 -i 0 -k RTR
+ -t 0.527407122 -s 7 -d -1 -p AODV -e 48 -c 2 -a 0 -i 0 -k RTR 
- -t 0.527407122 -s 7 -d -1 -p AODV -e 48 -c 2 -a 0 -i 0 -k RTR
h -t 0.527407122 -s 7 -d -1 -p AODV -e 48 -c 2 -a 0 -i 0 -k RTR
+ -t 0.527589023 -s 8 -d -1 -p AODV -e 48 -c 2 -a 0 -i 0 -k RTR 
- -t 0.527589023 -s 8 -d -1 -p AODV -e 48 -c 2 -a 0 -i 0 -k RTR
h -t 0.527589023 -s 8 -d -1 -p AODV -e 48 -c 2 -a 0 -i 0 -k RTR
r -t 0.528129146 -s 6 -d -1 -p AODV -e 48 -c 2 -a 0 -i 0 -k RTR
r -t 0.528129185 -s 7 -d -1 -p AODV -e 48 -c 2 -a 0 -i 0 -k RTR
r -t 0.528129220 -s 12 -d -1 -p AODV -e 48 -c 2 -a 0 -i 0 -k RTR
r -t 0.528129233 -s 11 -d -1 -p AODV -e 48 -c 2 -a 0 -i 0 -k RTR
r -t 0.528129281 -s 2 -d -1 -p AODV -e 48 -c 2 -a 0 -i 0 -k RTR
r -t 0.528129425 -s 9 -d -1 -p AODV -e 48 -c 2 -a 0 -i 0 -k RTR
r -t 0.528129431 -s 3 -d -1 -p AODV -e 48 -c 2 -a 0 -i 0 -k RTR
+ -t 0.528921054 -s 1 -d -1 -p AODV -e 48 -c 2 -a 0 -i 0 -k RTR 
- -t 0.528921054 -s 1 -d -1 -p AODV -e 48 -c 2 -a 0 -i 0 -k RTR
h -t 0.528921054 -s 1 -d -1 -p AODV -e 48 -c 2 -a 0 -i 0 -k RTR
+ -t 0.529079526 -s 4 -d -1 -p AODV -e 48 -c 2 -a 0 -i 0 -k RTR 
- -t 0.529079526 -s 4 -d -1 -p AODV -e 48 -c 2 -a 0 -i 0 -k RTR
h -t 0.529079526 -s 4 -d -1 -p AODV -e 48 -c 2 -a 0 -i 0 -k RTR
r -t 0.529147695 -s 9 -d -1 -p AODV -e 48 -c 2 -a 0 -i 0 -k RTR
r -t 0.529147699 -s 4 -d -1 -p AODV -e 48 -c 2 -a 0 -i 0 -k RTR
r -t 0.529147712 -s 3 -d -1 -p AODV -e 48 -c 2 -a 0 -i 0 -k RTR
r -t 0.529147759 -s 1 -d -1 -p AODV -e 48 -c 2 -a 0 -i 0 -k RTR
r -t 0.529147775 -s 8 -d -1 -p AODV -e 48 -c 2 -a 0 -i 0 -k RTR
r -t 0.529147944 -s 2 -d -1 -p AODV -e 48 -c 2 -a 0 -i 0 -k RTR
r -t 0.529147946 -s 6 -d -1 -p AODV -e 48 -c 2 -a 0 -i 0 -k RTR
r -t 0.530106309 -s 1 -d -1 -p AODV -e 48 -c 2 -a 0 -i 0 -k RTR
r -t 0.530106310 -s 9 -d -1 -p AODV -e 48 -c 2 -a 0 -i 0 -k RTR
r -t 0.530106366 -s 7 -d -1 -p AODV -e 48 -c 2 -a 0 -i 0 -k RTR
r -t 0.530106427 -s 13 -d -1 -p AODV -e 48 -c 2 -a 0 -i 0 -k RTR
r -t 0.531484855 -s 3 -d -1 -p AODV -e 48 -c 2 -a 0 -i 0 -k RTR
+ -t 0.531689806 -s 12 -d -1 -p AODV -e 48 -c 2 -a 0 -i 0 -k RTR 
- -t 0.531689806 -s 12 -d -1 -p AODV -e 48 -c 2 -a 0 -i 0 -k RTR
h -t 0.531689806 -s 12 -d -1 -p AODV -e 48 -c 2 -a 0 -i 0 -k RTR
r -t 0.532003193 -s 0 -d 0 -p ack -e 40 -c 2 -a 0 -i 2 -k AGT
+ -t 0.532003193 -s 0 -d -1 -p tcp -e 1040 -c 2 -a 0 -i 4 -k AGT 
- -t 0.532003193 -s 0 -d -1 -p tcp -e 1040 -c 2 -a 0 -i 4 -k AGT
h -t 0.532003193 -s 0 -d -1 -p tcp -e 1040 -c 2 -a 0 -i 4 -k AGT
+ -t 0.532003193 -s 0 -d -1 -p tcp -e 1040 -c 2 -a 0 -i 5 -k AGT 
- -t 0.532003193 -s 0 -d -1 -p tcp -e 1040 -c 2 -a 0 -i 5 -k AGT
h -t 0.532003193 -s 0 -d -1 -p tcp -e 1040 -c 2 -a 0 -i 5 -k AGT
+ -t 0.532003193 -s 0 -d 10 -p tcp -e 1040 -c 2 -a 0 -i 4 -k RTR 
- -t 0.532003193 -s 0 -d 10 -p tcp -e 1040 -c 2 -a 0 -i 4 -k RTR
h -t 0.532003193 -s 0 -d 10 -p tcp -e 1040 -c 2 -a 0 -i 4 -k RTR
+ -t 0.532003193 -s 0 -d 10 -p tcp -e 1040 -c 2 -a 0 -i 5 -k RTR 
- -t 0.532003193 -s 0 -d 10 -p tcp -e 1040 -c 2 -a 0 -i 5 -k RTR
h -t 0.532003193 -s 0 -d 10 -p tcp -e 1040 -c 2 -a 0 -i 5 -k RTR
+ -t 0.532401350 -s 7 -d -1 -p AODV -e 48 -c 2 -a 0 -i 0 -k RTR 
- -t 0.532401350 -s 7 -d -1 -p AODV -e 48 -c 2 -a 0 -i 0 -k RTR
h -t 0.532401350 -s 7 -d -1 -p AODV -e 48 -c 2 -a 0 -i 0 -k RTR
r -t 0.533306608 -s 2 -d -1 -p AODV -e 48 -c 2 -a 0 -i 0 -k RTR
r -t 0.533306620 -s 4 -d -1 -p AODV -e 48 -c 2 -a 0 -i 0 -k RTR
r -t 0.533306768 -s 11 -d -1 -p AODV -e 48 -c 2 -a 0 -i 0 -k RTR
+ -t 0.533713367 -s 2 -d -1 -p AODV -e 48 -c 2 -a 0 -i 0 -k RTR 
- -t 0.533713367 -s 2 -d -1 -p AODV -e 48 -c 2 -a 0 -i 0 -k RTR
h -t 0.533713367 -s 2 -d -1 -p AODV -e 48 -c 2 -a 0 -i 0 -k RTR
r -t 0.533919403 -s 0 -d 0 -p ack -e 40 -c 2 -a 0 -i 3 -k AGT
+ -t 0.533919403 -s 0 -d -1 -p tcp -e 1040 -c 2 -a 0 -i 6 -k AGT 
- -t 0.533919403 -s 0 -d -1 -p tcp -e 1040 -c 2 -a 0 -i 6 -k AGT
h -t 0.533919403 -s 0 -d -1 -p tcp -e 1040 -c 2 -a 0 -i 6 -k AGT
+ -t 0.533919403 -s 0 -d -1 -p tcp -e 1040 -c 2 -a 0 -i 7 -k AGT 
- -t 0.533919403 -s 0 -d -1 -p tcp -e 1040 -c 2 -a 0 -i 7 -k AGT
h -t 0.533919403 -s 0 -d -1 -p tcp -e 1040 -c 2 -a 0 -i 7 -k AGT
+ -t 0.533919403 -s 0 -d 5 -p tcp -e 1040 -c 2 -a 0 -i 6 -k RTR 
- -t 0.533919403 -s 0 -d 5 -p tcp -e 1040 -c 2 -a 0 -i 6 -k RTR
h -t 0.533919403 -s 0 -d 5 -p tcp -e 1040 -c 2 -a 0 -i 6 -k RTR
+ -t 0.533919403 -s 0 -d 5 -p tcp -e 1040 -c 2 -a 0 -i 7 -k RTR 
- -t 0.533919403 -s 0 -d 5 -p tcp -e 1040 -c 2 -a 0 -i 7 -k RTR
h -t 0.533919403 -s 0 -d 5 -p tcp -e 1040 -c 2 -a 0 -i 7 -k RTR
+ -t 0.534170084 -s 1 -d -1 -p AODV -e 48 -c 2 -a 0 -i 0 -k RTR 
- -t 0.534170084 -s 1 -d -1 -p AODV -e 48 -c 2 -a 0 -i 0 -k RTR
h -t 0.534170084 -s 1 -d -1 -p AODV -e 48 -c 2 -a 0 -i 0 -k RTR
+ -t 0.535100982 -s 12 -d -1 -p AODV -e 48 -c 2 -a 0 -i 0 -k RTR 
- -t 0.535100982 -s 12 -d -1 -p AODV -e 48 -c 2 -a 0 -i 0 -k RTR
h -t 0.535100982 -s 12 -d -1 -p AODV -e 48 -c 2 -a 0 -i 0 -k RTR
r -t 0.535101864 -s 3 -d -1 -p AODV -e 48 -c 2 -a 0 -i 0 -k RTR
r -t 0.535101905 -s 12 -d -1 -p AODV -e 48 -c 2 -a 0 -i 0 -k RTR
r -t 0.535101978 -s 4 -d -1 -p AODV -e 48 -c 2 -a 0 -i 0 -k RTR
r -t 0.535102126 -s 7 -d -1 -p AODV -e 48 -c 2 -a 0 -i 0 -k RTR
+ -t 0.535917044 -s 11 -d -1 -p AODV -e 48 -c 2 -a 0 -i 0 -k RTR 
- -t 0.535917044 -s 11 -d -1 -p AODV -e 48 -c 2 -a 0 -i 0 -k RTR
h -t 0.535917044 -s 11 -d -1 -p AODV -e 48 -c 2 -a 0 -i 0 -k RTR
r -t 0.536269519 -s 2 -d -1 -p AODV -e 48 -c 2 -a 0 -i 0 -k RTR
r -t 0.536269532 -s 4 -d -1 -p AODV -e 48 -c 2 -a 0 -i 0 -k RTR
r -t 0.536269680 -s 11 -d -1 -p AODV -e 48 -c 2 -a 0 -i 0 -k RTR
+ -t 0.536285254 -s 3 -d -1 -p AODV -e 48 -c 2 -a 0 -i 0 -k RTR 
- -t 0.536285254 -s 3 -d -1 -p AODV -e 48 -c 2 -a 0 -i 0 -k RTR
h -t 0.536285254 -s 3 -d -1 -p AODV -e 48 -c 2 -a 0 -i 0 -k RTR
r -t 0.537379131 -s 6 -d -1 -p AODV -e 48 -c 2 -a 0 -i 0 -k RTR
r -t 0.537379309 -s 4 -d -1 -p AODV -e 48 -c 2 -a 0 -i 0 -k RTR
r -t 0.537379445 -s 12 -d -1 -p AODV -e 48 -c 2 -a 0 -i 0 -k RTR
r -t 0.537379562 -s 10 -d -1 -p AODV -e 48 -c 2 -a 0 -i 0 -k RTR
+ -t 0.537981710 -s 2 -d -1 -p AODV -e 48 -c 2 -a 0 -i 0 -k RTR 
- -t 0.537981710 -s 2 -d -1 -p AODV -e 48 -c 2 -a 0 -i 0 -k RTR
h -t 0.537981710 -s 2 -d -1 -p AODV -e 48 -c 2 -a 0 -i 0 -k RTR
r -t 0.538357516 -s 11 -d -1 -p AODV -e 48 -c 2 -a 0 -i 0 -k RTR
r -t 0.538357606 -s 4 -d -1 -p AODV -e 48 -c 2 -a 0 -i 0 -k RTR
r -t 0.538357777 -s 9 -d -1 -p AODV -e 48 -c 2 -a 0 -i 0 -k RTR
r -t 0.538357800 -s 14 -d -1 -p AODV -e 48 -c 2 -a 0 -i 0 -k RTR
r -t 0.538357817 -s 10 -d -1 -p AODV -e 48 -c 2 -a 0 -i 0 -k RTR
r -t 0.538357892 -s 7 -d -1 -p AODV -e 48 -c 2 -a 0 -i 0 -k RTR
r -t 0.539416081 -s 6 -d -1 -p AODV -e 48 -c 2 -a 0 -i 0 -k RTR
r -t 0.539416120 -s 7 -d -1 -p AODV -e 48 -c 2 -a 0 -i 0 -k RTR
r -t 0.539416157 -s 12 -d -1 -p AODV -e 48 -c 2 -a 0 -i 0 -k RTR
r -t 0.539416169 -s 11 -d -1 -p AODV -e 48 -c 2 -a 0 -i 0 -k RTR
r -t 0.539416217 -s 2 -d -1 -p AODV -e 48 -c 2 -a 0 -i 0 -k RTR
r -t 0.539416361 -s 9 -d -1 -p AODV -e 48 -c 2 -a 0 -i 0 -k RTR
r -t 0.539416366 -s 3 -d -1 -p AODV -e 48 -c 2 -a 0 -i 0 -k RTR
r -t 0.540334631 -s 9 -d -1 -p AODV -e 48 -c 2 -a 0 -i 0 -k RTR
r -t 0.540334634 -s 4 -d -1 -p AODV -e 48 -c 2 -a 0 -i 0 -k RTR
r -t 0.540334647 -s 3 -d -1 -p AODV -e 48 -c 2 -a 0 -i 0 -k RTR
r -t 0.540334695 -s 1 -d -1 -p AODV -e 48 -c 2 -a 0 -i 0 -k RTR
r -t 0.540334710 -s 8 -d -1 -p AODV -e 48 -c 2 -a 0 -i 0 -k RTR
r -t 0.540334879 -s 2 -d -1 -p AODV -e 48 -c 2 -a 0 -i 0 -k RTR
r -t 0.540334881 -s 6 -d -1 -p AODV -e 48 -c 2 -a 0 -i 0 -k RTR
r -t 0.541373376 -s 3 -d -1 -p AODV -e 48 -c 2 -a 0 -i 0 -k RTR
r -t 0.541373416 -s 12 -d -1 -p AODV -e 48 -c 2 -a 0 -i 0 -k RTR
r -t 0.541373490 -s 4 -d -1 -p AODV -e 48 -c 2 -a 0 -i 0 -k RTR
r -t 0.541373639 -s 7 -d -1 -p AODV -e 48 -c 2 -a 0 -i 0 -k RTR
r -t 0.542611873 -s 2 -d -1 -p AODV -e 48 -c 2 -a 0 -i 0 -k RTR
r -t 0.542611923 -s 1 -d -1 -p AODV -e 48 -c 2 -a 0 -i 0 -k RTR
r -t 0.543770471 -s 3 -d -1 -p AODV -e 48 -c 2 -a 0 -i 0 -k RTR
r -t 0.543770499 -s 7 -d -1 -p AODV -e 48 -c 2 -a 0 -i 0 -k RTR
+ -t 0.543928981 -s 3 -d -1 -p AODV -e 48 -c 2 -a 0 -i 0 -k RTR 
- -t 0.543928981 -s 3 -d -1 -p AODV -e 48 -c 2 -a 0 -i 0 -k RTR
h -t 0.543928981 -s 3 -d -1 -p AODV -e 48 -c 2 -a 0 -i 0 -k RTR
r -t 0.544928968 -s 2 -d -1 -p AODV -e 48 -c 2 -a 0 -i 0 -k RTR
r -t 0.544928998 -s 7 -d -1 -p AODV -e 48 -c 2 -a 0 -i 0 -k RTR
r -t 0.544929019 -s 1 -d -1 -p AODV -e 48 -c 2 -a 0 -i 0 -k RTR
r -t 0.544929231 -s 4 -d -1 -p AODV -e 48 -c 2 -a 0 -i 0 -k RTR
r -t 0.551131492 -s 10 -d 10 -p tcp -e 1040 -c 2 -a 0 -i 4 -k AGT
+ -t 0.551131492 -s 10 -d -1 -p ack -e 40 -c 2 -a 0 -i 8 -k AGT 
- -t 0.551131492 -s 10 -d -1 -p ack -e 40 -c 2 -a 0 -i 8 -k AGT
h -t 0.551131492 -s 10 -d -1 -p ack -e 40 -c 2 -a 0 -i 8 -k AGT
+ -t 0.551131492 -s 10 -d 0 -p ack -e 40 -c 2 -a 0 -i 8 -k RTR 
- -t 0.551131492 -s 10 -d 0 -p ack -e 40 -c 2 -a 0 -i 8 -k RTR
h -t 0.551131492 -s 10 -d 0 -p ack -e 40 -c 2 -a 0 -i 8 -k RTR
r -t 0.561743984 -s 10 -d 10 -p tcp -e 1040 -c 2 -a 0 -i 5 -k AGT
+ -t 0.561743984 -s 10 -d -1 -p ack -e 40 -c 2 -a 0 -i 9 -k AGT 
- -t 0.561743984 -s 10 -d -1 -p ack -e 40 -c 2 -a 0 -i 9 -k AGT
h -t 0.561743984 -s 10 -d -1 -p ack -e 40 -c 2 -a 0 -i 9 -k AGT
+ -t 0.561743984 -s 10 -d 0 -p ack -e 40 -c 2 -a 0 -i 9 -k RTR 
- -t 0.561743984 -s 10 -d 0 -p ack -e 40 -c 2 -a 0 -i 9 -k RTR
h -t 0.561743984 -s 10 -d 0 -p ack -e 40 -c 2 -a 0 -i 9 -k RTR
r -t 0.571590362 -s 5 -d 5 -p tcp -e 1040 -c 2 -a 0 -i 6 -k AGT
+ -t 0.571590362 -s 5 -d -1 -p ack -e 40 -c 2 -a 0 -i 10 -k AGT 
- -t 0.571590362 -s 5 -d -1 -p ack -e 40 -c 2 -a 0 -i 10 -k AGT
h -t 0.571590362 -s 5 -d -1 -p ack -e 40 -c 2 -a 0 -i 10 -k AGT
+ -t 0.571590362 -s 5 -d 0 -p ack -e 40 -c 2 -a 0 -i 10 -k RTR 
- -t 0.571590362 -s 5 -d 0 -p ack -e 40 -c 2 -a 0 -i 10 -k RTR
h -t 0.571590362 -s 5 -d 0 -p ack -e 40 -c 2 -a 0 -i 10 -k RTR
r -t 0.573436115 -s 0 -d 0 -p ack -e 40 -c 2 -a 0 -i 10 -k AGT
+ -t 0.573436115 -s 0 -d -1 -p tcp -e 1040 -c 2 -a 0 -i 11 -k AGT 
- -t 0.573436115 -s 0 -d -1 -p tcp -e 1040 -c 2 -a 0 -i 11 -k AGT
h -t 0.573436115 -s 0 -d -1 -p tcp -e 1040 -c 2 -a 0 -i 11 -k AGT
+ -t 0.573436115 -s 0 -d -1 -p tcp -e 1040 -c 2 -a 0 -i 12 -k AGT 
- -t 0.573436115 -s 0 -d -1 -p tcp -e 1040 -c 2 -a 0 -i 12 -k AGT
h -t 0.573436115 -s 0 -d -1 -p tcp -e 1040 -c 2 -a 0 -i 12 -k AGT
+ -t 0.573436115 -s 0 -d 5 -p tcp -e 1040 -c 2 -a 0 -i 11 -k RTR 
- -t 0.573436115 -s 0 -d 5 -p tcp -e 1040 -c 2 -a 0 -i 11 -k RTR
h -t 0.573436115 -s 0 -d 5 -p tcp -e 1040 -c 2 -a 0 -i 11 -k RTR
+ -t 0.573436115 -s 0 -d 5 -p tcp -e 1040 -c 2 -a 0 -i 12 -k RTR 
- -t 0.573436115 -s 0 -d 5 -p tcp -e 1040 -c 2 -a 0 -i 12 -k RTR
h -t 0.573436115 -s 0 -d 5 -p tcp -e 1040 -c 2 -a 0 -i 12 -k RTR
r -t 0.575532483 -s 0 -d 0 -p ack -e 40 -c 2 -a 0 -i 8 -k AGT
+ -t 0.575532483 -s 0 -d -1 -p tcp -e 1040 -c 2 -a 0 -i 13 -k AGT 
- -t 0.575532483 -s 0 -d -1 -p tcp -e 1040 -c 2 -a 0 -i 13 -k AGT
h -t 0.575532483 -s 0 -d -1 -p tcp -e 1040 -c 2 -a 0 -i 13 -k AGT
+ -t 0.575532483 -s 0 -d -1 -p tcp -e 1040 -c 2 -a 0 -i 14 -k AGT 
- -t 0.575532483 -s 0 -d -1 -p tcp -e 1040 -c 2 -a 0 -i 14 -k AGT
h -t 0.575532483 -s 0 -d -1 -p tcp -e 1040 -c 2 -a 0 -i 14 -k AGT
+ -t 0.575532483 -s 0 -d 10 -p tcp -e 1040 -c 2 -a 0 -i 13 -k RTR 
- -t 0.575532483 -s 0 -d 10 -p tcp -e 1040 -c 2 -a 0 -i 13 -k RTR
h -t 0.575532483 -s 0 -d 10 -p tcp -e 1040 -c 2 -a 0 -i 13 -k RTR
+ -t 0.575532483 -s 0 -d 10 -p tcp -e 1040 -c 2 -a 0 -i 14 -k RTR 
- -t 0.575532483 -s 0 -d 10 -p tcp -e 1040 -c 2 -a 0 -i 14 -k RTR
h -t 0.575532483 -s 0 -d 10 -p tcp -e 1040 -c 2 -a 0 -i 14 -k RTR
r -t 0.585478236 -s 5 -d 5 -p tcp -e 1040 -c 2 -a 0 -i 7 -k AGT
+ -t 0.585478236 -s 5 -d -1 -p ack -e 40 -c 2 -a 0 -i 15 -k AGT 
- -t 0.585478236 -s 5 -d -1 -p ack -e 40 -c 2 -a 0 -i 15 -k AGT
h -t 0.585478236 -s 5 -d -1 -p ack -e 40 -c 2 -a 0 -i 15 -k AGT
+ -t 0.585478236 -s 5 -d 0 -p ack -e 40 -c 2 -a 0 -i 15 -k RTR 
- -t 0.585478236 -s 5 -d 0 -p ack -e 40 -c 2 -a 0 -i 15 -k RTR
h -t 0.585478236 -s 5 -d 0 -p ack -e 40 -c 2 -a 0 -i 15 -k RTR
r -t 0.587423989 -s 0 -d 0 -p ack -e 40 -c 2 -a 0 -i 15 -k AGT
+ -t 0.587423989 -s 0 -d -1 -p tcp -e 1040 -c 2 -a 0 -i 16 -k AGT 
- -t 0.587423989 -s 0 -d -1 -p tcp -e 1040 -c 2 -a 0 -i 16 -k AGT
h -t 0.587423989 -s 0 -d -1 -p tcp -e 1040 -c 2 -a 0 -i 16 -k AGT
+ -t 0.587423989 -s 0 -d -1 -p tcp -e 1040 -c 2 -a 0 -i 17 -k AGT 
- -t 0.587423989 -s 0 -d -1 -p tcp -e 1040 -c 2 -a 0 -i 17 -k AGT
h -t 0.587423989 -s 0 -d -1 -p tcp -e 1040 -c 2 -a 0 -i 17 -k AGT
+ -t 0.587423989 -s 0 -d 5 -p tcp -e 1040 -c 2 -a 0 -i 16 -k RTR 
- -t 0.587423989 -s 0 -d 5 -p tcp -e 1040 -c 2 -a 0 -i 16 -k RTR
h -t 0.587423989 -s 0 -d 5 -p tcp -e 1040 -c 2 -a 0 -i 16 -k RTR
+ -t 0.587423989 -s 0 -d 5 -p tcp -e 1040 -c 2 -a 0 -i 17 -k RTR 
- -t 0.587423989 -s 0 -d 5 -p tcp -e 1040 -c 2 -a 0 -i 17 -k RTR
h -t 0.587423989 -s 0 -d 5 -p tcp -e 1040 -c 2 -a 0 -i 17 -k RTR
r -t 0.589560361 -s 0 -d 0 -p ack -e 40 -c 2 -a 0 -i 9 -k AGT
+ -t 0.589560361 -s 0 -d -1 -p tcp -e 1040 -c 2 -a 0 -i 18 -k AGT 
- -t 0.589560361 -s 0 -d -1 -p tcp -e 1040 -c 2 -a 0 -i 18 -k AGT
h -t 0.589560361 -s 0 -d -1 -p tcp -e 1040 -c 2 -a 0 -i 18 -k AGT
+ -t 0.589560361 -s 0 -d -1 -p tcp -e 1040 -c 2 -a 0 -i 19 -k AGT 
- -t 0.589560361 -s 0 -d -1 -p tcp -e 1040 -c 2 -a 0 -i 19 -k AGT
h -t 0.589560361 -s 0 -d -1 -p tcp -e 1040 -c 2 -a 0 -i 19 -k AGT
+ -t 0.589560361 -s 0 -d 10 -p tcp -e 1040 -c 2 -a 0 -i 18 -k RTR 
- -t 0.589560361 -s 0 -d 10 -p tcp -e 1040 -c 2 -a 0 -i 18 -k RTR
h -t 0.589560361 -s 0 -d 10 -p tcp -e 1040 -c 2 -a 0 -i 18 -k RTR
+ -t 0.589560361 -s 0 -d 10 -p tcp -e 1040 -c 2 -a 0 -i 19 -k RTR 
- -t 0.589560361 -s 0 -d 10 -p tcp -e 1040 -c 2 -a 0 -i 19 -k RTR
h -t 0.589560361 -s 0 -d 10 -p tcp -e 1040 -c 2 -a 0 -i 19 -k RTR
r -t 0.599466114 -s 5 -d 5 -p tcp -e 1040 -c 2 -a 0 -i 11 -k AGT
+ -t 0.599466114 -s 5 -d -1 -p ack -e 40 -c 2 -a 0 -i 20 -k AGT 
- -t 0.599466114 -s 5 -d -1 -p ack -e 40 -c 2 -a 0 -i 20 -k AGT
h -t 0.599466114 -s 5 -d -1 -p ack -e 40 -c 2 -a 0 -i 20 -k AGT
+ -t 0.599466114 -s 5 -d 0 -p ack -e 40 -c 2 -a 0 -i 20 -k RTR 
- -t 0.599466114 -s 5 -d 0 -p ack -e 40 -c 2 -a 0 -i 20 -k RTR
h -t 0.599466114 -s 5 -d 0 -p ack -e 40 -c 2 -a 0 -i 20 -k RTR
r -t 0.609472451 -s 5 -d 5 -p tcp -e 1040 -c 2 -a 0 -i 12 -k AGT
+ -t 0.609472451 -s 5 -d -1 -p ack -e 40 -c 2 -a 0 -i 21 -k AGT 
- -t 0.609472451 -s 5 -d -1 -p ack -e 40 -c 2 -a 0 -i 21 -k AGT
h -t 0.609472451 -s 5 -d -1 -p ack -e 40 -c 2 -a 0 -i 21 -k AGT
+ -t 0.609472451 -s 5 -d 0 -p ack -e 40 -c 2 -a 0 -i 21 -k RTR 
- -t 0.609472451 -s 5 -d 0 -p ack -e 40 -c 2 -a 0 -i 21 -k RTR
h -t 0.609472451 -s 5 -d 0 -p ack -e 40 -c 2 -a 0 -i 21 -k RTR
r -t 0.619438918 -s 10 -d 10 -p tcp -e 1040 -c 2 -a 0 -i 13 -k AGT
+ -t 0.619438918 -s 10 -d -1 -p ack -e 40 -c 2 -a 0 -i 22 -k AGT 
- -t 0.619438918 -s 10 -d -1 -p ack -e 40 -c 2 -a 0 -i 22 -k AGT
h -t 0.619438918 -s 10 -d -1 -p ack -e 40 -c 2 -a 0 -i 22 -k AGT
+ -t 0.619438918 -s 10 -d 0 -p ack -e 40 -c 2 -a 0 -i 22 -k RTR 
- -t 0.619438918 -s 10 -d 0 -p ack -e 40 -c 2 -a 0 -i 22 -k RTR
h -t 0.619438918 -s 10 -d 0 -p ack -e 40 -c 2 -a 0 -i 22 -k RTR
r -t 0.621364803 -s 0 -d 0 -p ack -e 40 -c 2 -a 0 -i 22 -k AGT
+ -t 0.621364803 -s 0 -d -1 -p tcp -e 1040 -c 2 -a 0 -i 23 -k AGT 
- -t 0.621364803 -s 0 -d -1 -p tcp -e 1040 -c 2 -a 0 -i 23 -k AGT
h -t 0.621364803 -s 0 -d -1 -p tcp -e 1040 -c 2 -a 0 -i 23 -k AGT
+ -t 0.621364803 -s 0 -d -1 -p tcp -e 1040 -c 2 -a 0 -i 24 -k AGT 
- -t 0.621364803 -s 0 -d -1 -p tcp -e 1040 -c 2 -a 0 -i 24 -k AGT
h -t 0.621364803 -s 0 -d -1 -p tcp -e 1040 -c 2 -a 0 -i 24 -k AGT
+ -t 0.621364803 -s 0 -d 10 -p tcp -e 1040 -c 2 -a 0 -i 23 -k RTR 
- -t 0.621364803 -s 0 -d 10 -p tcp -e 1040 -c 2 -a 0 -i 23 -k RTR
h -t 0.621364803 -s 0 -d 10 -p tcp -e 1040 -c 2 -a 0 -i 23 -k RTR
+ -t 0.621364803 -s 0 -d 10 -p tcp -e 1040 -c 2 -a 0 -i 24 -k RTR 
- -t 0.621364803 -s 0 -d 10 -p tcp -e 1040 -c 2 -a 0 -i 24 -k RTR
h -t 0.621364803 -s 0 -d 10 -p tcp -e 1040 -c 2 -a 0 -i 24 -k RTR
r -t 0.631330689 -s 10 -d 10 -p tcp -e 1040 -c 2 -a 0 -i 14 -k AGT
+ -t 0.631330689 -s 10 -d -1 -p ack -e 40 -c 2 -a 0 -i 25 -k AGT 
- -t 0.631330689 -s 10 -d -1 -p ack -e 40 -c 2 -a 0 -i 25 -k AGT
h -t 0.631330689 -s 10 -d -1 -p ack -e 40 -c 2 -a 0 -i 25 -k AGT
+ -t 0.631330689 -s 10 -d 0 -p ack -e 40 -c 2 -a 0 -i 25 -k RTR 
- -t 0.631330689 -s 10 -d 0 -p ack -e 40 -c 2 -a 0 -i 25 -k RTR
h -t 0.631330689 -s 10 -d 0 -p ack -e 40 -c 2 -a 0 -i 25 -k RTR
r -t 0.641157070 -s 5 -d 5 -p tcp -e 1040 -c 2 -a 0 -i 16 -k AGT
+ -t 0.641157070 -s 5 -d -1 -p ack -e 40 -c 2 -a 0 -i 26 -k AGT 
- -t 0.641157070 -s 5 -d -1 -p ack -e 40 -c 2 -a 0 -i 26 -k AGT
h -t 0.641157070 -s 5 -d -1 -p ack -e 40 -c 2 -a 0 -i 26 -k AGT
+ -t 0.641157070 -s 5 -d 0 -p ack -e 40 -c 2 -a 0 -i 26 -k RTR 
- -t 0.641157070 -s 5 -d 0 -p ack -e 40 -c 2 -a 0 -i 26 -k RTR
h -t 0.641157070 -s 5 -d 0 -p ack -e 40 -c 2 -a 0 -i 26 -k RTR
r -t 0.643122820 -s 0 -d 0 -p ack -e 40 -c 2 -a 0 -i 20 -k AGT
+ -t 0.643122820 -s 0 -d -1 -p tcp -e 1040 -c 2 -a 0 -i 27 -k AGT 
- -t 0.643122820 -s 0 -d -1 -p tcp -e 1040 -c 2 -a 0 -i 27 -k AGT
h -t 0.643122820 -s 0 -d -1 -p tcp -e 1040 -c 2 -a 0 -i 27 -k AGT
+ -t 0.643122820 -s 0 -d -1 -p tcp -e 1040 -c 2 -a 0 -i 28 -k AGT 
- -t 0.643122820 -s 0 -d -1 -p tcp -e 1040 -c 2 -a 0 -i 28 -k AGT
h -t 0.643122820 -s 0 -d -1 -p tcp -e 1040 -c 2 -a 0 -i 28 -k AGT
+ -t 0.643122820 -s 0 -d 5 -p tcp -e 1040 -c 2 -a 0 -i 27 -k RTR 
- -t 0.643122820 -s 0 -d 5 -p tcp -e 1040 -c 2 -a 0 -i 27 -k RTR
h -t 0.643122820 -s 0 -d 5 -p tcp -e 1040 -c 2 -a 0 -i 27 -k RTR
+ -t 0.643122820 -s 0 -d 5 -p tcp -e 1040 -c 2 -a 0 -i 28 -k RTR 
- -t 0.643122820 -s 0 -d 5 -p tcp -e 1040 -c 2 -a 0 -i 28 -k RTR
h -t 0.643122820 -s 0 -d 5 -p tcp -e 1040 -c 2 -a 0 -i 28 -k RTR
r -t 0.645099208 -s 0 -d 0 -p ack -e 40 -c 2 -a 0 -i 25 -k AGT
+ -t 0.645099208 -s 0 -d -1 -p tcp -e 1040 -c 2 -a 0 -i 29 -k AGT 
- -t 0.645099208 -s 0 -d -1 -p tcp -e 1040 -c 2 -a 0 -i 29 -k AGT
h -t 0.645099208 -s 0 -d -1 -p tcp -e 1040 -c 2 -a 0 -i 29 -k AGT
+ -t 0.645099208 -s 0 -d -1 -p tcp -e 1040 -c 2 -a 0 -i 30 -k AGT 
- -t 0.645099208 -s 0 -d -1 -p tcp -e 1040 -c 2 -a 0 -i 30 -k AGT
h -t 0.645099208 -s 0 -d -1 -p tcp -e 1040 -c 2 -a 0 -i 30 -k AGT
+ -t 0.645099208 -s 0 -d 10 -p tcp -e 1040 -c 2 -a 0 -i 29 -k RTR 
- -t 0.645099208 -s 0 -d 10 -p tcp -e 1040 -c 2 -a 0 -i 29 -k RTR