M 0.00000 1 (537.00, 236.00, 0.00), (537.00, 249.00), 25.00
M 0.00000 2 (587.00, 540.00, 0.00), (588.00, 561.00), 25.00
M 0.00000 3 (589.00, 391.00, 0.00), (590.00, 409.00), 25.00
M 0.00000 4 (405.00, 538.00, 0.00), (405.00, 538.00), 25.00
M 0.00000 5 (57.00, 222.00, 0.00), (81.00, 241.00), 25.00
M 0.00000 6 (254.00, 528.00, 0.00), (267.00, 544.00), 25.00
M 0.00000 7 (432.00, 373.00, 0.00), (433.00, 391.00), 25.00
M 0.00000 8 (378.00, 204.00, 0.00), (381.00, 222.00), 25.00
M 0.00000 9 (285.00, 346.00, 0.00), (285.00, 346.00), 25.00
M 0.00000 10 (55.00, 540.00, 0.00), (61.00, 576.00), 25.00
M 0.00000 11 (293.00, 658.00, 0.00), (214.00, 621.00), 25.00
M 0.00000 12 (479.00, 671.00, 0.00), (495.00, 687.00), 25.00
M 0.00000 13 (182.00, 172.00, 0.00), (195.00, 200.00), 25.00
M 0.00000 14 (153.00, 386.00, 0.00), (141.00, 377.00), 25.00
v 0 eval {set sim_annotation {Network Deployed}}
v 0.10000000000000001 eval {set sim_annotation {NODE0 became SOURCE NODE }}
v 0.20000000000000001 eval {set sim_annotation {NODE7 became DESTINATION NODE }}
s 0.500000000 _0_ AGT  --- 0 tcp 40 [0 0 0 0] ------- [0:0 10:0 32 0] [0 0] 0 0
r 0.500000000 _0_ RTR  --- 0 tcp 40 [0 0 0 0] ------- [0:0 10:0 32 0] [0 0] 0 0
s 0.500000000 _0_ AGT  --- 1 tcp 40 [0 0 0 0] ------- [0:1 5:0 32 0] [0 0] 0 0
r 0.500000000 _0_ RTR  --- 1 tcp 40 [0 0 0 0] ------- [0:1 5:0 32 0] [0 0] 0 0
s 0.500000000 _0_ RTR  --- 0 AODV 48 [0 0 0 0] ------- [0:255 -1:255 30 0] [0x2 1 1 [10 0] [0 4]] (REQUEST)
s 0.500000000 _0_ RTR  --- 0 AODV 48 [0 0 0 0] ------- [0:255 -1:255 30 0] [0x2 1 2 [5 0] [0 6]] (REQUEST)
r 0.501168540 _14_ RTR  --- 0 AODV 48 [0 ffffffff 0 800] ------- [0:255 -1:255 30 0] [0x2 1 1 [10 0] [0 4]] (REQUEST)
r 0.501168585 _5_ RTR  --- 0 AODV 48 [0 ffffffff 0 800] ------- [0:255 -1:255 30 0] [0x2 1 1 [10 0] [0 4]] (REQUEST)
r 0.501168619 _10_ RTR  --- 0 AODV 48 [0 ffffffff 0 800] ------- [0:255 -1:255 30 0] [0x2 1 1 [10 0] [0 4]] (REQUEST)
s 0.501168619 _10_ RTR  --- 0 AODV 44 [0 0 0 0] ------- [10:255 0:255 30 0] [0x4 1 [10 4] 10.000000] (REPLY)
r 0.502086540 _14_ RTR  --- 0 AODV 48 [0 ffffffff 0 800] ------- [0:255 -1:255 30 0] [0x2 1 2 [5 0] [0 6]] (REQUEST)
r 0.502086585 _5_ RTR  --- 0 AODV 48 [0 ffffffff 0 800] ------- [0:255 -1:255 30 0] [0x2 1 2 [5 0] [0 6]] (REQUEST)
s 0.502086585 _5_ RTR  --- 0 AODV 44 [0 0 0 0] ------- [5:255 0:255 30 0] [0x4 1 [5 4] 10.000000] (REPLY)
r 0.502086619 _10_ RTR  --- 0 AODV 48 [0 ffffffff 0 800] ------- [0:255 -1:255 30 0] [0x2 1 2 [5 0] [0 6]] (REQUEST)
s 0.504258213 _10_ RTR  --- 0 AODV 48 [0 ffffffff 0 800] ------- [10:255 -1:255 29 0] [0x2 2 2 [5 0] [0 6]] (REQUEST)
s 0.505829745 _5_ RTR  --- 0 AODV 48 [0 ffffffff 0 800] ------- [5:255 -1:255 29 0] [0x2 2 1 [10 0] [0 4]] (REQUEST)
r 0.506333714 _0_ RTR  --- 0 AODV 48 [0 ffffffff a 800] ------- [10:255 -1:255 29 0] [0x2 2 2 [5 0] [0 6]] (REQUEST)
r 0.506333742 _14_ RTR  --- 0 AODV 48 [0 ffffffff a 800] ------- [10:255 -1:255 29 0] [0x2 2 2 [5 0] [0 6]] (REQUEST)
r 0.506333780 _6_ RTR  --- 0 AODV 48 [0 ffffffff a 800] ------- [10:255 -1:255 29 0] [0x2 2 2 [5 0] [0 6]] (REQUEST)
r 0.506333914 _11_ RTR  --- 0 AODV 48 [0 ffffffff a 800] ------- [10:255 -1:255 29 0] [0x2 2 2 [5 0] [0 6]] (REQUEST)
s 0.506355028 _14_ RTR  --- 0 AODV 48 [0 ffffffff 0 800] ------- [14:255 -1:255 29 0] [0x2 2 1 [10 0] [0 4]] (REQUEST)
s 0.507425899 _11_ RTR  --- 0 AODV 48 [0 ffffffff a 800] ------- [11:255 -1:255 28 0] [0x2 3 2 [5 0] [0 6]] (REQUEST)
r 0.508016953 _0_ RTR  --- 0 AODV 44 [13a 0 a 800] ------- [10:255 0:255 30 0] [0x4 1 [10 4] 10.000000] (REPLY)
s 0.508016953 _0_ RTR  --- 0 tcp 40 [0 0 0 0] ------- [0:0 10:0 30 10] [0 0] 0 0
r 0.509369979 _9_ RTR  --- 0 AODV 48 [0 ffffffff e 800] ------- [14:255 -1:255 29 0] [0x2 2 1 [10 0] [0 4]] (REQUEST)
r 0.509370032 _0_ RTR  --- 0 AODV 48 [0 ffffffff e 800] ------- [14:255 -1:255 29 0] [0x2 2 1 [10 0] [0 4]] (REQUEST)
r 0.509370048 _5_ RTR  --- 0 AODV 48 [0 ffffffff e 800] ------- [14:255 -1:255 29 0] [0x2 2 1 [10 0] [0 4]] (REQUEST)
r 0.509370140 _10_ RTR  --- 0 AODV 48 [0 ffffffff e 800] ------- [14:255 -1:255 29 0] [0x2 2 1 [10 0] [0 4]] (REQUEST)
r 0.509370156 _6_ RTR  --- 0 AODV 48 [0 ffffffff e 800] ------- [14:255 -1:255 29 0] [0x2 2 1 [10 0] [0 4]] (REQUEST)
r 0.509370159 _13_ RTR  --- 0 AODV 48 [0 ffffffff e 800] ------- [14:255 -1:255 29 0] [0x2 2 1 [10 0] [0 4]] (REQUEST)
s 0.509478242 _13_ RTR  --- 0 AODV 48 [0 ffffffff e 800] ------- [13:255 -1:255 28 0] [0x2 3 1 [10 0] [0 4]] (REQUEST)
s 0.509954183 _6_ RTR  --- 0 AODV 48 [0 ffffffff e 800] ------- [6:255 -1:255 28 0] [0x2 3 1 [10 0] [0 4]] (REQUEST)
s 0.510388970 _6_ RTR  --- 0 AODV 48 [0 ffffffff a 800] ------- [6:255 -1:255 28 0] [0x2 3 2 [5 0] [0 6]] (REQUEST)
s 0.510484792 _14_ RTR  --- 0 AODV 48 [0 ffffffff 0 800] ------- [14:255 -1:255 29 0] [0x2 2 2 [5 0] [0 6]] (REQUEST)
s 0.510490292 _9_ RTR  --- 0 AODV 48 [0 ffffffff e 800] ------- [9:255 -1:255 28 0] [0x2 3 1 [10 0] [0 4]] (REQUEST)
r 0.512000493 _10_ AGT  --- 0 tcp 40 [13a a 0 800] ------- [0:0 10:0 30 10] [0 0] 1 0
s 0.512000493 _10_ AGT  --- 2 ack 40 [0 0 0 0] ------- [10:0 0:0 32 0] [0 0] 0 0
r 0.512000493 _10_ RTR  --- 2 ack 40 [0 0 0 0] ------- [10:0 0:0 32 0] [0 0] 0 0
s 0.512000493 _10_ RTR  --- 2 ack 40 [0 0 0 0] ------- [10:0 0:0 30 0] [0 0] 0 0
r 0.514963298 _13_ RTR  --- 0 AODV 48 [0 ffffffff 5 800] ------- [5:255 -1:255 29 0] [0x2 2 1 [10 0] [0 4]] (REQUEST)
r 0.514963423 _14_ RTR  --- 0 AODV 48 [0 ffffffff 5 800] ------- [5:255 -1:255 29 0] [0x2 2 1 [10 0] [0 4]] (REQUEST)
r 0.514963453 _0_ RTR  --- 0 AODV 48 [0 ffffffff 5 800] ------- [5:255 -1:255 29 0] [0x2 2 1 [10 0] [0 4]] (REQUEST)
r 0.514963691 _9_ RTR  --- 0 AODV 48 [0 ffffffff 5 800] ------- [5:255 -1:255 29 0] [0x2 2 1 [10 0] [0 4]] (REQUEST)
r 0.515941728 _5_ RTR  --- 0 AODV 48 [0 ffffffff d 800] ------- [13:255 -1:255 28 0] [0x2 3 1 [10 0] [0 4]] (REQUEST)
r 0.515941929 _9_ RTR  --- 0 AODV 48 [0 ffffffff d 800] ------- [13:255 -1:255 28 0] [0x2 3 1 [10 0] [0 4]] (REQUEST)
r 0.515941950 _8_ RTR  --- 0 AODV 48 [0 ffffffff d 800] ------- [13:255 -1:255 28 0] [0x2 3 1 [10 0] [0 4]] (REQUEST)
r 0.515941963 _14_ RTR  --- 0 AODV 48 [0 ffffffff d 800] ------- [13:255 -1:255 28 0] [0x2 3 1 [10 0] [0 4]] (REQUEST)
r 0.516940450 _9_ RTR  --- 0 AODV 48 [0 ffffffff e 800] ------- [14:255 -1:255 29 0] [0x2 2 2 [5 0] [0 6]] (REQUEST)
r 0.516940503 _0_ RTR  --- 0 AODV 48 [0 ffffffff e 800] ------- [14:255 -1:255 29 0] [0x2 2 2 [5 0] [0 6]] (REQUEST)
r 0.516940518 _5_ RTR  --- 0 AODV 48 [0 ffffffff e 800] ------- [14:255 -1:255 29 0] [0x2 2 2 [5 0] [0 6]] (REQUEST)
r 0.516940611 _10_ RTR  --- 0 AODV 48 [0 ffffffff e 800] ------- [14:255 -1:255 29 0] [0x2 2 2 [5 0] [0 6]] (REQUEST)
r 0.516940628 _6_ RTR  --- 0 AODV 48 [0 ffffffff e 800] ------- [14:255 -1:255 29 0] [0x2 2 2 [5 0] [0 6]] (REQUEST)
r 0.516940629 _13_ RTR  --- 0 AODV 48 [0 ffffffff e 800] ------- [14:255 -1:255 29 0] [0x2 2 2 [5 0] [0 6]] (REQUEST)
r 0.517938936 _14_ RTR  --- 0 AODV 48 [0 ffffffff 9 800] ------- [9:255 -1:255 28 0] [0x2 3 1 [10 0] [0 4]] (REQUEST)
r 0.517938960 _7_ RTR  --- 0 AODV 48 [0 ffffffff 9 800] ------- [9:255 -1:255 28 0] [0x2 3 1 [10 0] [0 4]] (REQUEST)
r 0.517938985 _8_ RTR  --- 0 AODV 48 [0 ffffffff 9 800] ------- [9:255 -1:255 28 0] [0x2 3 1 [10 0] [0 4]] (REQUEST)
r 0.517939081 _13_ RTR  --- 0 AODV 48 [0 ffffffff 9 800] ------- [9:255 -1:255 28 0] [0x2 3 1 [10 0] [0 4]] (REQUEST)
r 0.517939094 _6_ RTR  --- 0 AODV 48 [0 ffffffff 9 800] ------- [9:255 -1:255 28 0] [0x2 3 1 [10 0] [0 4]] (REQUEST)
r 0.517939205 _4_ RTR  --- 0 AODV 48 [0 ffffffff 9 800] ------- [9:255 -1:255 28 0] [0x2 3 1 [10 0] [0 4]] (REQUEST)
r 0.517939273 _5_ RTR  --- 0 AODV 48 [0 ffffffff 9 800] ------- [9:255 -1:255 28 0] [0x2 3 1 [10 0] [0 4]] (REQUEST)
s 0.518802771 _13_ RTR  --- 0 AODV 48 [0 ffffffff e 800] ------- [13:255 -1:255 28 0] [0x2 3 2 [5 0] [0 6]] (REQUEST)
r 0.519523028 _0_ RTR  --- 0 AODV 44 [13a 0 5 800] ------- [5:255 0:255 30 0] [0x4 1 [5 4] 10.000000] (REPLY)
s 0.519523028 _0_ RTR  --- 1 tcp 40 [0 0 0 0] ------- [0:1 5:0 30 5] [0 0] 0 0
s 0.520198822 _8_ RTR  --- 0 AODV 48 [0 ffffffff d 800] ------- [8:255 -1:255 27 0] [0x2 4 1 [10 0] [0 4]] (REQUEST)
s 0.520213620 _9_ RTR  --- 0 AODV 48 [0 ffffffff e 800] ------- [9:255 -1:255 28 0] [0x2 3 2 [5 0] [0 6]] (REQUEST)
r 0.521388784 _5_ AGT  --- 1 tcp 40 [13a 5 0 800] ------- [0:1 5:0 30 5] [0 0] 1 0
s 0.521388784 _5_ AGT  --- 3 ack 40 [0 0 0 0] ------- [5:0 0:1 32 0] [0 0] 0 0
r 0.521388784 _5_ RTR  --- 3 ack 40 [0 0 0 0] ------- [5:0 0:1 32 0] [0 0] 0 0
s 0.521388784 _5_ RTR  --- 3 ack 40 [0 0 0 0] ------- [5:0 0:1 30 0] [0 0] 0 0
r 0.522671584 _5_ RTR  --- 0 AODV 48 [0 ffffffff d 800] ------- [13:255 -1:255 28 0] [0x2 3 2 [5 0] [0 6]] (REQUEST)
r 0.522671785 _9_ RTR  --- 0 AODV 48 [0 ffffffff d 800] ------- [13:255 -1:255 28 0] [0x2 3 2 [5 0] [0 6]] (REQUEST)
r 0.522671806 _8_ RTR  --- 0 AODV 48 [0 ffffffff d 800] ------- [13:255 -1:255 28 0] [0x2 3 2 [5 0] [0 6]] (REQUEST)
r 0.522671820 _14_ RTR  --- 0 AODV 48 [0 ffffffff d 800] ------- [13:255 -1:255 28 0] [0x2 3 2 [5 0] [0 6]] (REQUEST)
r 0.523750272 _14_ RTR  --- 0 AODV 48 [0 ffffffff 9 800] ------- [9:255 -1:255 28 0] [0x2 3 2 [5 0] [0 6]] (REQUEST)
r 0.523750296 _7_ RTR  --- 0 AODV 48 [0 ffffffff 9 800] ------- [9:255 -1:255 28 0] [0x2 3 2 [5 0] [0 6]] (REQUEST)
r 0.523750320 _8_ RTR  --- 0 AODV 48 [0 ffffffff 9 800] ------- [9:255 -1:255 28 0] [0x2 3 2 [5 0] [0 6]] (REQUEST)
r 0.523750416 _13_ RTR  --- 0 AODV 48 [0 ffffffff 9 800] ------- [9:255 -1:255 28 0] [0x2 3 2 [5 0] [0 6]] (REQUEST)
r 0.523750430 _6_ RTR  --- 0 AODV 48 [0 ffffffff 9 800] ------- [9:255 -1:255 28 0] [0x2 3 2 [5 0] [0 6]] (REQUEST)
r 0.523750540 _4_ RTR  --- 0 AODV 48 [0 ffffffff 9 800] ------- [9:255 -1:255 28 0] [0x2 3 2 [5 0] [0 6]] (REQUEST)
r 0.523750608 _5_ RTR  --- 0 AODV 48 [0 ffffffff 9 800] ------- [9:255 -1:255 28 0] [0x2 3 2 [5 0] [0 6]] (REQUEST)
r 0.524708854 _1_ RTR  --- 0 AODV 48 [0 ffffffff 8 800] ------- [8:255 -1:255 27 0] [0x2 4 1 [10 0] [0 4]] (REQUEST)
r 0.524708855 _9_ RTR  --- 0 AODV 48 [0 ffffffff 8 800] ------- [8:255 -1:255 27 0] [0x2 4 1 [10 0] [0 4]] (REQUEST)
r 0.524708911 _7_ RTR  --- 0 AODV 48 [0 ffffffff 8 800] ------- [8:255 -1:255 27 0] [0x2 4 1 [10 0] [0 4]] (REQUEST)
r 0.524708972 _13_ RTR  --- 0 AODV 48 [0 ffffffff 8 800] ------- [8:255 -1:255 27 0] [0x2 4 1 [10 0] [0 4]] (REQUEST)
s 0.525666162 _4_ RTR  --- 0 AODV 48 [0 ffffffff 9 800] ------- [4:255 -1:255 27 0] [0x2 4 1 [10 0] [0 4]] (REQUEST)
r 0.526072195 _6_ RTR  --- 0 AODV 48 [0 ffffffff b 800] ------- [11:255 -1:255 28 0] [0x2 3 2 [5 0] [0 6]] (REQUEST)
r 0.526072371 _4_ RTR  --- 0 AODV 48 [0 ffffffff b 800] ------- [11:255 -1:255 28 0] [0x2 3 2 [5 0] [0 6]] (REQUEST)
r 0.526072506 _12_ RTR  --- 0 AODV 48 [0 ffffffff b 800] ------- [11:255 -1:255 28 0] [0x2 3 2 [5 0] [0 6]] (REQUEST)
r 0.526072626 _10_ RTR  --- 0 AODV 48 [0 ffffffff b 800] ------- [11:255 -1:255 28 0] [0x2 3 2 [5 0] [0 6]] (REQUEST)
r 0.527170581 _11_ RTR  --- 0 AODV 48 [0 ffffffff 6 800] ------- [6:255 -1:255 28 0] [0x2 3 1 [10 0] [0 4]] (REQUEST)
r 0.527170671 _4_ RTR  --- 0 AODV 48 [0 ffffffff 6 800] ------- [6:255 -1:255 28 0] [0x2 3 1 [10 0] [0 4]] (REQUEST)
r 0.527170840 _9_ RTR  --- 0 AODV 48 [0 ffffffff 6 800] ------- [6:255 -1:255 28 0] [0x2 3 1 [10 0] [0 4]] (REQUEST)
r 0.527170861 _14_ RTR  --- 0 AODV 48 [0 ffffffff 6 800] ------- [6:255 -1:255 28 0] [0x2 3 1 [10 0] [0 4]] (REQUEST)
r 0.527170880 _10_ RTR  --- 0 AODV 48 [0 ffffffff 6 800] ------- [6:255 -1:255 28 0] [0x2 3 1 [10 0] [0 4]] (REQUEST)
r 0.527170956 _7_ RTR  --- 0 AODV 48 [0 ffffffff 6 800] ------- [6:255 -1:255 28 0] [0x2 3 1 [10 0] [0 4]] (REQUEST)
s 0.527407122 _7_ RTR  --- 0 AODV 48 [0 ffffffff 9 800] ------- [7:255 -1:255 27 0] [0x2 4 1 [10 0] [0 4]] (REQUEST)
s 0.527589023 _8_ RTR  --- 0 AODV 48 [0 ffffffff d 800] ------- [8:255 -1:255 27 0] [0x2 4 2 [5 0] [0 6]] (REQUEST)
r 0.528129146 _6_ RTR  --- 0 AODV 48 [0 ffffffff 4 800] ------- [4:255 -1:255 27 0] [0x2 4 1 [10 0] [0 4]] (REQUEST)
r 0.528129185 _7_ RTR  --- 0 AODV 48 [0 ffffffff 4 800] ------- [4:255 -1:255 27 0] [0x2 4 1 [10 0] [0 4]] (REQUEST)
r 0.528129220 _12_ RTR  --- 0 AODV 48 [0 ffffffff 4 800] ------- [4:255 -1:255 27 0] [0x2 4 1 [10 0] [0 4]] (REQUEST)
r 0.528129233 _11_ RTR  --- 0 AODV 48 [0 ffffffff 4 800] ------- [4:255 -1:255 27 0] [0x2 4 1 [10 0] [0 4]] (REQUEST)
r 0.528129281 _2_ RTR  --- 0 AODV 48 [0 ffffffff 4 800] ------- [4:255 -1:255 27 0] [0x2 4 1 [10 0] [0 4]] (REQUEST)
r 0.528129425 _9_ RTR  --- 0 AODV 48 [0 ffffffff 4 800] ------- [4:255 -1:255 27 0] [0x2 4 1 [10 0] [0 4]] (REQUEST)
r 0.528129431 _3_ RTR  --- 0 AODV 48 [0 ffffffff 4 800] ------- [4:255 -1:255 27 0] [0x2 4 1 [10 0] [0 4]] (REQUEST)
s 0.528921054 _1_ RTR  --- 0 AODV 48 [0 ffffffff 8 800] ------- [1:255 -1:255 26 0] [0x2 5 1 [10 0] [0 4]] (REQUEST)
s 0.529079526 _4_ RTR  --- 0 AODV 48 [0 ffffffff 9 800] ------- [4:255 -1:255 27 0] [0x2 4 2 [5 0] [0 6]] (REQUEST)
r 0.529147695 _9_ RTR  --- 0 AODV 48 [0 ffffffff 7 800] ------- [7:255 -1:255 27 0] [0x2 4 1 [10 0] [0 4]] (REQUEST)
r 0.529147699 _4_ RTR  --- 0 AODV 48 [0 ffffffff 7 800] ------- [7:255 -1:255 27 0] [0x2 4 1 [10 0] [0 4]] (REQUEST)
r 0.529147712 _3_ RTR  --- 0 AODV 48 [0 ffffffff 7 800] ------- [7:255 -1:255 27 0] [0x2 4 1 [10 0] [0 4]] (REQUEST)
r 0.529147759 _1_ RTR  --- 0 AODV 48 [0 ffffffff 7 800] ------- [7:255 -1:255 27 0] [0x2 4 1 [10 0] [0 4]] (REQUEST)
r 0.529147775 _8_ RTR  --- 0 AODV 48 [0 ffffffff 7 800] ------- [7:255 -1:255 27 0] [0x2 4 1 [10 0] [0 4]] (REQUEST)
r 0.529147944 _2_ RTR  --- 0 AODV 48 [0 ffffffff 7 800] ------- [7:255 -1:255 27 0] [0x2 4 1 [10 0] [0 4]] (REQUEST)
r 0.529147946 _6_ RTR  --- 0 AODV 48 [0 ffffffff 7 800] ------- [7:255 -1:255 27 0] [0x2 4 1 [10 0] [0 4]] (REQUEST)
r 0.530106309 _1_ RTR  --- 0 AODV 48 [0 ffffffff 8 800] ------- [8:255 -1:255 27 0] [0x2 4 2 [5 0] [0 6]] (REQUEST)
r 0.530106310 _9_ RTR  --- 0 AODV 48 [0 ffffffff 8 800] ------- [8:255 -1:255 27 0] [0x2 4 2 [5 0] [0 6]] (REQUEST)
r 0.530106366 _7_ RTR  --- 0 AODV 48 [0 ffffffff 8 800] ------- [8:255 -1:255 27 0] [0x2 4 2 [5 0] [0 6]] (REQUEST)
r 0.530106427 _13_ RTR  --- 0 AODV 48 [0 ffffffff 8 800] ------- [8:255 -1:255 27 0] [0x2 4 2 [5 0] [0 6]] (REQUEST)
r 0.531484855 _3_ RTR  --- 0 AODV 48 [0 ffffffff 1 800] ------- [1:255 -1:255 26 0] [0x2 5 1 [10 0] [0 4]] (REQUEST)
s 0.531689806 _12_ RTR  --- 0 AODV 48 [0 ffffffff 4 800] ------- [12:255 -1:255 26 0] [0x2 5 1 [10 0] [0 4]] (REQUEST)
r 0.532003193 _0_ AGT  --- 2 ack 40 [13a 0 a 800] ------- [10:0 0:0 30 0] [0 0] 1 0
s 0.532003193 _0_ AGT  --- 4 tcp 1040 [0 0 0 0] ------- [0:0 10:0 32 0] [1 0] 0 0
r 0.532003193 _0_ RTR  --- 4 tcp 1040 [0 0 0 0] ------- [0:0 10:0 32 0] [1 0] 0 0
s 0.532003193 _0_ AGT  --- 5 tcp 1040 [0 0 0 0] ------- [0:0 10:0 32 0] [2 0] 0 0
r 0.532003193 _0_ RTR  --- 5 tcp 1040 [0 0 0 0] ------- [0:0 10:0 32 0] [2 0] 0 0
s 0.532003193 _0_ RTR  --- 4 tcp 1040 [0 0 0 0] ------- [0:0 10:0 30 10] [1 0] 0 0
s 0.532003193 _0_ RTR  --- 5 tcp 1040 [0 0 0 0] ------- [0:0 10:0 30 10] [2 0] 0 0
s 0.532401350 _7_ RTR  --- 0 AODV 48 [0 ffffffff 9 800] ------- [7:255 -1:255 27 0] [0x2 4 2 [5 0] [0 6]] (REQUEST)
r 0.533306608 _2_ RTR  --- 0 AODV 48 [0 ffffffff c 800] ------- [12:255 -1:255 26 0] [0x2 5 1 [10 0] [0 4]] (REQUEST)
r 0.533306620 _4_ RTR  --- 0 AODV 48 [0 ffffffff c 800] ------- [12:255 -1:255 26 0] [0x2 5 1 [10 0] [0 4]] (REQUEST)
r 0.533306768 _11_ RTR  --- 0 AODV 48 [0 ffffffff c 800] ------- [12:255 -1:255 26 0] [0x2 5 1 [10 0] [0 4]] (REQUEST)
s 0.533713367 _2_ RTR  --- 0 AODV 48 [0 ffffffff 4 800] ------- [2:255 -1:255 26 0] [0x2 5 1 [10 0] [0 4]] (REQUEST)
r 0.533919403 _0_ AGT  --- 3 ack 40 [13a 0 5 800] ------- [5:0 0:1 30 0] [0 0] 1 0
s 0.533919403 _0_ AGT  --- 6 tcp 1040 [0 0 0 0] ------- [0:1 5:0 32 0] [1 0] 0 0
r 0.533919403 _0_ RTR  --- 6 tcp 1040 [0 0 0 0] ------- [0:1 5:0 32 0] [1 0] 0 0
s 0.533919403 _0_ AGT  --- 7 tcp 1040 [0 0 0 0] ------- [0:1 5:0 32 0] [2 0] 0 0
r 0.533919403 _0_ RTR  --- 7 tcp 1040 [0 0 0 0] ------- [0:1 5:0 32 0] [2 0] 0 0
s 0.533919403 _0_ RTR  --- 6 tcp 1040 [0 0 0 0] ------- [0:1 5:0 30 5] [1 0] 0 0
s 0.533919403 _0_ RTR  --- 7 tcp 1040 [0 0 0 0] ------- [0:1 5:0 30 5] [2 0] 0 0
s 0.534170084 _1_ RTR  --- 0 AODV 48 [0 ffffffff 8 800] ------- [1:255 -1:255 26 0] [0x2 5 2 [5 0] [0 6]] (REQUEST)
s 0.535100982 _12_ RTR  --- 0 AODV 48 [0 ffffffff b 800] ------- [12:255 -1:255 27 0] [0x2 4 2 [5 0] [0 6]] (REQUEST)
r 0.535101864 _3_ RTR  --- 0 AODV 48 [0 ffffffff 2 800] ------- [2:255 -1:255 26 0] [0x2 5 1 [10 0] [0 4]] (REQUEST)
r 0.535101905 _12_ RTR  --- 0 AODV 48 [0 ffffffff 2 800] ------- [2:255 -1:255 26 0] [0x2 5 1 [10 0] [0 4]] (REQUEST)
r 0.535101978 _4_ RTR  --- 0 AODV 48 [0 ffffffff 2 800] ------- [2:255 -1:255 26 0] [0x2 5 1 [10 0] [0 4]] (REQUEST)
r 0.535102126 _7_ RTR  --- 0 AODV 48 [0 ffffffff 2 800] ------- [2:255 -1:255 26 0] [0x2 5 1 [10 0] [0 4]] (REQUEST)
s 0.535917044 _11_ RTR  --- 0 AODV 48 [0 ffffffff 6 800] ------- [11:255 -1:255 27 0] [0x2 4 1 [10 0] [0 4]] (REQUEST)
r 0.536269519 _2_ RTR  --- 0 AODV 48 [0 ffffffff c 800] ------- [12:255 -1:255 27 0] [0x2 4 2 [5 0] [0 6]] (REQUEST)
r 0.536269532 _4_ RTR  --- 0 AODV 48 [0 ffffffff c 800] ------- [12:255 -1:255 27 0] [0x2 4 2 [5 0] [0 6]] (REQUEST)
r 0.536269680 _11_ RTR  --- 0 AODV 48 [0 ffffffff c 800] ------- [12:255 -1:255 27 0] [0x2 4 2 [5 0] [0 6]] (REQUEST)
s 0.536285254 _3_ RTR  --- 0 AODV 48 [0 ffffffff 4 800] ------- [3:255 -1:255 26 0] [0x2 5 1 [10 0] [0 4]] (REQUEST)
r 0.537379131 _6_ RTR  --- 0 AODV 48 [0 ffffffff b 800] ------- [11:255 -1:255 27 0] [0x2 4 1 [10 0] [0 4]] (REQUEST)
r 0.537379309 _4_ RTR  --- 0 AODV 48 [0 ffffffff b 800] ------- [11:255 -1:255 27 0] [0x2 4 1 [10 0] [0 4]] (REQUEST)
r 0.537379445 _12_ RTR  --- 0 AODV 48 [0 ffffffff b 800] ------- [11:255 -1:255 27 0] [0x2 4 1 [10 0] [0 4]] (REQUEST)
r 0.537379562 _10_ RTR  --- 0 AODV 48 [0 ffffffff b 800] ------- [11:255 -1:255 27 0] [0x2 4 1 [10 0] [0 4]] (REQUEST)
s 0.537981710 _2_ RTR  --- 0 AODV 48 [0 ffffffff c 800] ------- [2:255 -1:255 26 0] [0x2 5 2 [5 0] [0 6]] (REQUEST)
r 0.538357516 _11_ RTR  --- 0 AODV 48 [0 ffffffff 6 800] ------- [6:255 -1:255 28 0] [0x2 3 2 [5 0] [0 6]] (REQUEST)
r 0.538357606 _4_ RTR  --- 0 AODV 48 [0 ffffffff 6 800] ------- [6:255 -1:255 28 0] [0x2 3 2 [5 0] [0 6]] (REQUEST)
r 0.538357777 _9_ RTR  --- 0 AODV 48 [0 ffffffff 6 800] ------- [6:255 -1:255 28 0] [0x2 3 2 [5 0] [0 6]] (REQUEST)
r 0.538357800 _14_ RTR  --- 0 AODV 48 [0 ffffffff 6 800] ------- [6:255 -1:255 28 0] [0x2 3 2 [5 0] [0 6]] (REQUEST)
r 0.538357817 _10_ RTR  --- 0 AODV 48 [0 ffffffff 6 800] ------- [6:255 -1:255 28 0] [0x2 3 2 [5 0] [0 6]] (REQUEST)
r 0.538357892 _7_ RTR  --- 0 AODV 48 [0 ffffffff 6 800] ------- [6:255 -1:255 28 0] [0x2 3 2 [5 0] [0 6]] (REQUEST)
r 0.539416081 _6_ RTR  --- 0 AODV 48 [0 ffffffff 4 800] ------- [4:255 -1:255 27 0] [0x2 4 2 [5 0] [0 6]] (REQUEST)
r 0.539416120 _7_ RTR  --- 0 AODV 48 [0 ffffffff 4 800] ------- [4:255 -1:255 27 0] [0x2 4 2 [5 0] [0 6]] (REQUEST)
r 0.539416157 _12_ RTR  --- 0 AODV 48 [0 ffffffff 4 800] ------- [4:255 -1:255 27 0] [0x2 4 2 [5 0] [0 6]] (REQUEST)
r 0.539416169 _11_ RTR  --- 0 AODV 48 [0 ffffffff 4 800] ------- [4:255 -1:255 27 0] [0x2 4 2 [5 0] [0 6]] (REQUEST)
r 0.539416217 _2_ RTR  --- 0 AODV 48 [0 ffffffff 4 800] ------- [4:255 -1:255 27 0] [0x2 4 2 [5 0] [0 6]] (REQUEST)
r 0.539416361 _9_ RTR  --- 0 AODV 48 [0 ffffffff 4 800] ------- [4:255 -1:255 27 0] [0x2 4 2 [5 0] [0 6]] (REQUEST)
r 0.539416366 _3_ RTR  --- 0 AODV 48 [0 ffffffff 4 800] ------- [4:255 -1:255 27 0] [0x2 4 2 [5 0] [0 6]] (REQUEST)
r 0.540334631 _9_ RTR  --- 0 AODV 48 [0 ffffffff 7 800] ------- [7:255 -1:255 27 0] [0x2 4 2 [5 0] [0 6]] (REQUEST)
r 0.540334634 _4_ RTR  --- 0 AODV 48 [0 ffffffff 7 800] ------- [7:255 -1:255 27 0] [0x2 4 2 [5 0] [0 6]] (REQUEST)
r 0.540334647 _3_ RTR  --- 0 AODV 48 [0 ffffffff 7 800] ------- [7:255 -1:255 27 0] [0x2 4 2 [5 0] [0 6]] (REQUEST)
r 0.540334695 _1_ RTR  --- 0 AODV 48 [0 ffffffff 7 800] ------- [7:255 -1:255 27 0] [0x2 4 2 [5 0] [0 6]] (REQUEST)
r 0.540334710 _8_ RTR  --- 0 AODV 48 [0 ffffffff 7 800] ------- [7:255 -1:255 27 0] [0x2 4 2 [5 0] [0 6]] (REQUEST)
r 0.540334879 _2_ RTR  --- 0 AODV 48 [0 ffffffff 7 800] ------- [7:255 -1:255 27 0] [0x2 4 2 [5 0] [0 6]] (REQUEST)
r 0.540334881 _6_ RTR  --- 0 AODV 48 [0 ffffffff 7 800] ------- [7:255 -1:255 27 0] [0x2 4 2 [5 0] [0 6]] (REQUEST)
r 0.541373376 _3_ RTR  --- 0 AODV 48 [0 ffffffff 2 800] ------- [2:255 -1:255 26 0] [0x2 5 2 [5 0] [0 6]] (REQUEST)
r 0.541373416 _12_ RTR  --- 0 AODV 48 [0 ffffffff 2 800] ------- [2:255 -1:255 26 0] [0x2 5 2 [5 0] [0 6]] (REQUEST)
r 0.541373490 _4_ RTR  --- 0 AODV 48 [0 ffffffff 2 800] ------- [2:255 -1:255 26 0] [0x2 5 2 [5 0] [0 6]] (REQUEST)
r 0.541373639 _7_ RTR  --- 0 AODV 48 [0 ffffffff 2 800] ------- [2:255 -1:255 26 0] [0x2 5 2 [5 0] [0 6]] (REQUEST)
r 0.542611873 _2_ RTR  --- 0 AODV 48 [0 ffffffff 3 800] ------- [3:255 -1:255 26 0] [0x2 5 1 [10 0] [0 4]] (REQUEST)
r 0.542611923 _1_ RTR  --- 0 AODV 48 [0 ffffffff 3 800] ------- [3:255 -1:255 26 0] [0x2 5 1 [10 0] [0 4]] (REQUEST)
r 0.543770471 _3_ RTR  --- 0 AODV 48 [0 ffffffff 1 800] ------- [1:255 -1:255 26 0] [0x2 5 2 [5 0] [0 6]] (REQUEST)
r 0.543770499 _7_ RTR  --- 0 AODV 48 [0 ffffffff 1 800] ------- [1:255 -1:255 26 0] [0x2 5 2 [5 0] [0 6]] (REQUEST)
s 0.543928981 _3_ RTR  --- 0 AODV 48 [0 ffffffff 4 800] ------- [3:255 -1:255 26 0] [0x2 5 2 [5 0] [0 6]] (REQUEST)
r 0.544928968 _2_ RTR  --- 0 AODV 48 [0 ffffffff 3 800] ------- [3:255 -1:255 26 0] [0x2 5 2 [5 0] [0 6]] (REQUEST)
r 0.544928998 _7_ RTR  --- 0 AODV 48 [0 ffffffff 3 800] ------- [3:255 -1:255 26 0] [0x2 5 2 [5 0] [0 6]] (REQUEST)
r 0.544929019 _1_ RTR  --- 0 AODV 48 [0 ffffffff 3 800] ------- [3:255 -1:255 26 0] [0x2 5 2 [5 0] [0 6]] (REQUEST)
r 0.544929231 _4_ RTR  --- 0 AODV 48 [0 ffffffff 3 800] ------- [3:255 -1:255 26 0] [0x2 5 2 [5 0] [0 6]] (REQUEST)
r 0.551131492 _10_ AGT  --- 4 tcp 1040 [13a a 0 800] ------- [0:0 10:0 30 10] [1 0] 1 0
s 0.551131492 _10_ AGT  --- 8 ack 40 [0 0 0 0] ------- [10:0 0:0 32 0] [1 0] 0 0
r 0.551131492 _10_ RTR  --- 8 ack 40 [0 0 0 0] ------- [10:0 0:0 32 0] [1 0] 0 0
s 0.551131492 _10_ RTR  --- 8 ack 40 [0 0 0 0] ------- [10:0 0:0 30 0] [1 0] 0 0
r 0.561743984 _10_ AGT  --- 5 tcp 1040 [13a a 0 800] ------- [0:0 10:0 30 10] [2 0] 1 0
s 0.561743984 _10_ AGT  --- 9 ack 40 [0 0 0 0] ------- [10:0 0:0 32 0] [2 0] 0 0
r 0.561743984 _10_ RTR  --- 9 ack 40 [0 0 0 0] ------- [10:0 0:0 32 0] [2 0] 0 0
s 0.561743984 _10_ RTR  --- 9 ack 40 [0 0 0 0] ------- [10:0 0:0 30 0] [2 0] 0 0
r 0.571590362 _5_ AGT  --- 6 tcp 1040 [13a 5 0 800] ------- [0:1 5:0 30 5] [1 0] 1 0
s 0.571590362 _5_ AGT  --- 10 ack 40 [0 0 0 0] ------- [5:0 0:1 32 0] [1 0] 0 0
r 0.571590362 _5_ RTR  --- 10 ack 40 [0 0 0 0] ------- [5:0 0:1 32 0] [1 0] 0 0
s 0.571590362 _5_ RTR  --- 10 ack 40 [0 0 0 0] ------- [5:0 0:1 30 0] [1 0] 0 0
r 0.573436115 _0_ AGT  --- 10 ack 40 [13a 0 5 800] ------- [5:0 0:1 30 0] [1 0] 1 0
s 0.573436115 _0_ AGT  --- 11 tcp 1040 [0 0 0 0] ------- [0:1 5:0 32 0] [3 0] 0 0
r 0.573436115 _0_ RTR  --- 11 tcp 1040 [0 0 0 0] ------- [0:1 5:0 32 0] [3 0] 0 0
s 0.573436115 _0_ AGT  --- 12 tcp 1040 [0 0 0 0] ------- [0:1 5:0 32 0] [4 0] 0 0
r 0.573436115 _0_ RTR  --- 12 tcp 1040 [0 0 0 0] ------- [0:1 5:0 32 0] [4 0] 0 0
s 0.573436115 _0_ RTR  --- 11 tcp 1040 [0 0 0 0] ------- [0:1 5:0 30 5] [3 0] 0 0
s 0.573436115 _0_ RTR  --- 12 tcp 1040 [0 0 0 0] ------- [0:1 5:0 30 5] [4 0] 0 0
r 0.575532483 _0_ AGT  --- 8 ack 40 [13a 0 a 800] ------- [10:0 0:0 30 0] [1 0] 1 0
s 0.575532483 _0_ AGT  --- 13 tcp 1040 [0 0 0 0] ------- [0:0 10:0 32 0] [3 0] 0 0
r 0.575532483 _0_ RTR  --- 13 tcp 1040 [0 0 0 0] ------- [0:0 10:0 32 0] [3 0] 0 0
s 0.575532483 _0_ AGT  --- 14 tcp 1040 [0 0 0 0] ------- [0:0 10:0 32 0] [4 0] 0 0
r 0.575532483 _0_ RTR  --- 14 tcp 1040 [0 0 0 0] ------- [0:0 10:0 32 0] [4 0] 0 0
s 0.575532483 _0_ RTR  --- 13 tcp 1040 [0 0 0 0] ------- [0:0 10:0 30 10] [3 0] 0 0
s 0.575532483 _0_ RTR  --- 14 tcp 1040 [0 0 0 0] ------- [0:0 10:0 30 10] [4 0] 0 0
r 0.585478236 _5_ AGT  --- 7 tcp 1040 [13a 5 0 800] ------- [0:1 5:0 30 5] [2 0] 1 0
s 0.585478236 _5_ AGT  --- 15 ack 40 [0 0 0 0] ------- [5:0 0:1 32 0] [2 0] 0 0
r 0.585478236 _5_ RTR  --- 15 ack 40 [0 0 0 0] ------- [5:0 0:1 32 0] [2 0] 0 0
s 0.585478236 _5_ RTR  --- 15 ack 40 [0 0 0 0] ------- [5:0 0:1 30 0] [2 0] 0 0
r 0.587423989 _0_ AGT  --- 15 ack 40 [13a 0 5 800] ------- [5:0 0:1 30 0] [2 0] 1 0
s 0.587423989 _0_ AGT  --- 16 tcp 1040 [0 0 0 0] ------- [0:1 5:0 32 0] [5 0] 0 0
r 0.587423989 _0_ RTR  --- 16 tcp 1040 [0 0 0 0] ------- [0:1 5:0 32 0] [5 0] 0 0
s 0.587423989 _0_ AGT  --- 17 tcp 1040 [0 0 0 0] ------- [0:1 5:0 32 0] [6 0] 0 0
r 0.587423989 _0_ RTR  --- 17 tcp 1040 [0 0 0 0] ------- [0:1 5:0 32 0] [6 0] 0 0
s 0.587423989 _0_ RTR  --- 16 tcp 1040 [0 0 0 0] ------- [0:1 5:0 30 5] [5 0] 0 0
s 0.587423989 _0_ RTR  --- 17 tcp 1040 [0 0 0 0] ------- [0:1 5:0 30 5] [6 0] 0 0
r 0.589560361 _0_ AGT  --- 9 ack 40 [13a 0 a 800] ------- [10:0 0:0 30 0] [2 0] 1 0
s 0.589560361 _0_ AGT  --- 18 tcp 1040 [0 0 0 0] ------- [0:0 10:0 32 0] [5 0] 0 0
r 0.589560361 _0_ RTR  --- 18 tcp 1040 [0 0 0 0] ------- [0:0 10:0 32 0] [5 0] 0 0
s 0.589560361 _0_ AGT  --- 19 tcp 1040 [0 0 0 0] ------- [0:0 10:0 32 0] [6 0] 0 0
r 0.589560361 _0_ RTR  --- 19 tcp 1040 [0 0 0 0] ------- [0:0 10:0 32 0] [6 0] 0 0
s 0.589560361 _0_ RTR  --- 18 tcp 1040 [0 0 0 0] ------- [0:0 10:0 30 10] [5 0] 0 0
s 0.589560361 _0_ RTR  --- 19 tcp 1040 [0 0 0 0] ------- [0:0 10:0 30 10] [6 0] 0 0
r 0.599466114 _5_ AGT  --- 11 tcp 1040 [13a 5 0 800] ------- [0:1 5:0 30 5] [3 0] 1 0
s 0.599466114 _5_ AGT  --- 20 ack 40 [0 0 0 0] ------- [5:0 0:1 32 0] [3 0] 0 0
r 0.599466114 _5_ RTR  --- 20 ack 40 [0 0 0 0] ------- [5:0 0:1 32 0] [3 0] 0 0
s 0.599466114 _5_ RTR  --- 20 ack 40 [0 0 0 0] ------- [5:0 0:1 30 0] [3 0] 0 0
r 0.609472451 _5_ AGT  --- 12 tcp 1040 [13a 5 0 800] ------- [0:1 5:0 30 5] [4 0] 1 0
s 0.609472451 _5_ AGT  --- 21 ack 40 [0 0 0 0] ------- [5:0 0:1 32 0] [4 0] 0 0
r 0.609472451 _5_ RTR  --- 21 ack 40 [0 0 0 0] ------- [5:0 0:1 32 0] [4 0] 0 0
s 0.609472451 _5_ RTR  --- 21 ack 40 [0 0 0 0] ------- [5:0 0:1 30 0] [4 0] 0 0
r 0.619438918 _10_ AGT  --- 13 tcp 1040 [13a a 0 800] ------- [0:0 10:0 30 10] [3 0] 1 0
s 0.619438918 _10_ AGT  --- 22 ack 40 [0 0 0 0] ------- [10:0 0:0 32 0] [3 0] 0 0
r 0.619438918 _10_ RTR  --- 22 ack 40 [0 0 0 0] ------- [10:0 0:0 32 0] [3 0] 0 0
s 0.619438918 _10_ RTR  --- 22 ack 40 [0 0 0 0] ------- [10:0 0:0 30 0] [3 0] 0 0
r 0.621364803 _0_ AGT  --- 22 ack 40 [13a 0 a 800] ------- [10:0 0:0 30 0] [3 0] 1 0
s 0.621364803 _0_ AGT  --- 23 tcp 1040 [0 0 0 0] ------- [0:0 10:0 32 0] [7 0] 0 0
r 0.621364803 _0_ RTR  --- 23 tcp 1040 [0 0 0 0] ------- [0:0 10:0 32 0] [7 0] 0 0
s 0.621364803 _0_ AGT  --- 24 tcp 1040 [0 0 0 0] ------- [0:0 10:0 32 0] [8 0] 0 0
r 0.621364803 _0_ RTR  --- 24 tcp 1040 [0 0 0 0] ------- [0:0 10:0 32 0] [8 0] 0 0
s 0.621364803 _0_ RTR  --- 23 tcp 1040 [0 0 0 0] ------- [0:0 10:0 30 10] [7 0] 0 0
s 0.621364803 _0_ RTR  --- 24 tcp 1040 [0 0 0 0] ------- [0:0 10:0 30 10] [8 0] 0 0
r 0.631330689 _10_ AGT  --- 14 tcp 1040 [13a a 0 800] ------- [0:0 10:0 30 10] [4 0] 1 0
s 0.631330689 _10_ AGT  --- 25 ack 40 [0 0 0 0] ------- [10:0 0:0 32 0] [4 0] 0 0
r 0.631330689 _10_ RTR  --- 25 ack 40 [0 0 0 0] ------- [10:0 0:0 32 0] [4 0] 0 0
s 0.631330689 _10_ RTR  --- 25 ack 40 [0 0 0 0] ------- [10:0 0:0 30 0] [4 0] 0 0
r 0.641157070 _5_ AGT  --- 16 tcp 1040 [13a 5 0 800] ------- [0:1 5:0 30 5] [5 0] 1 0
s 0.641157070 _5_ AGT  --- 26 ack 40 [0 0 0 0] ------- [5:0 0:1 32 0] [5 0] 0 0
r 0.641157070 _5_ RTR  --- 26 ack 40 [0 0 0 0] ------- [5:0 0:1 32 0] [5 0] 0 0
s 0.641157070 _5_ RTR  --- 26 ack 40 [0 0 0 0] ------- [5:0 0:1 30 0] [5 0] 0 0
r 0.643122820 _0_ AGT  --- 20 ack 40 [13a 0 5 800] ------- [5:0 0:1 30 0] [3 0] 1 0
s 0.643122820 _0_ AGT  --- 27 tcp 1040 [0 0 0 0] ------- [0:1 5:0 32 0] [7 0] 0 0
r 0.643122820 _0_ RTR  --- 27 tcp 1040 [0 0 0 0] ------- [0:1 5:0 32 0] [7 0] 0 0
s 0.643122820 _0_ AGT  --- 28 tcp 1040 [0 0 0 0] ------- [0:1 5:0 32 0] [8 0] 0 0
r 0.643122820 _0_ RTR  --- 28 tcp 1040 [0 0 0 0] ------- [0:1 5:0 32 0] [8 0] 0 0
s 0.643122820 _0_ RTR  --- 27 tcp 1040 [0 0 0 0] ------- [0:1 5:0 30 5] [7 0] 0 0
s 0.643122820 _0_ RTR  --- 28 tcp 1040 [0 0 0 0] ------- [0:1 5:0 30 5] [8 0] 0 0
r 0.645099208 _0_ AGT  --- 25 ack 40 [13a 0 a 800] ------- [10:0 0:0 30 0] [4 0] 1 0
s 0.645099208 _0_ AGT  --- 29 tcp 1040 [0 0 0 0] ------- [0:0 10:0 32 0] [9 0] 0 0
r 0.645099208 _0_ RTR  --- 29 tcp 1040 [0 0 0 0] ------- [0:0 10:0 32 0] [9 0] 0 0
s 0.645099208 _0_ AGT  --- 30 tcp 1040 [0 0 0 0] ------- [0:0 10:0 32 0] [10 0] 0 0
r 0.645099208 _0_ RTR  --- 30 tcp 1040 [0 0 0 0] ------- [0:0 10:0 32 0] [10 0] 0 0
s 0.645099208 _0_ RTR  --- 29 tcp 1040 [0 0 0 0] ------- [0:0 10:0 30 10] [9 0] 0 0
s 0.645099208 _0_ RTR  --- 30 tcp 1040 [0 0 0 0] ------- [0:0 10:0 30 10] [10 0] 0 0
r 0.655204959 _5_ AGT  --- 17 tcp 1040 [13a 5 0 800] ------- [0:1 5:0 30 5] [6 0] 1 0
s 0.655204959 _5_ AGT  --- 31 ack 40 [0 0 0 0] ------- [5:0 0:1 32 0] [6 0] 0 0
r 0.655204959 _5_ RTR  --- 31 ack 40 [0 0 0 0] ------- [5:0 0:1 32 0] [6 0] 0 0
s 0.655204959 _5_ RTR  --- 31 ack 40 [0 0 0 0] ------- [5:0 0:1 30 0] [6 0] 0 0
r 0.657230710 _0_ AGT  --- 21 ack 40 [13a 0 5 800] ------- [5:0 0:1 30 0] [4 0] 1 0
s 0.657230710 _0_ AGT  --- 32 tcp 1040 [0 0 0 0] ------- [0:1 5:0 32 0] [9 0] 0 0
r 0.657230710 _0_ RTR  --- 32 tcp 1040 [0 0 0 0] ------- [0:1 5:0 32 0] [9 0] 0 0
s 0.657230710 _0_ AGT  --- 33 tcp 1040 [0 0 0 0] ------- [0:1 5:0 32 0] [10 0] 0 0
r 0.657230710 _0_ RTR  --- 33 tcp 1040 [0 0 0 0] ------- [0:1 5:0 32 0] [10 0] 0 0
s 0.657230710 _0_ RTR  --- 32 tcp 1040 [0 0 0 0] ------- [0:1 5:0 30 5] [9 0] 0 0
s 0.657230710 _0_ RTR  --- 33 tcp 1040 [0 0 0 0] ------- [0:1 5:0 30 5] [10 0] 0 0
r 0.659277043 _0_ AGT  --- 26 ack 40 [13a 0 5 800] ------- [5:0 0:1 30 0] [5 0] 1 0
s 0.659277043 _0_ AGT  --- 34 tcp 1040 [0 0 0 0] ------- [0:1 5:0 32 0] [11 0] 0 0